 vasp.5.3.6 23Jan15 (build Feb 02 2016 19:35:31) gamma-only                     
  
 executed on           IFC91_ompi date 2016.02.06  15:53:04
 running on   32 total cores
 distrk:  each k-point on   32 cores,    1 groups
 distr:  one band on NCORES_PER_BAND=   1 cores,   32 groups


--------------------------------------------------------------------------------------------------------


 INCAR:
 POTCAR:    PAW_PBE C_GW_new 19Mar2012            
 POTCAR:   PAW_PBE N_GW_new 19Mar2012             

 ----------------------------------------------------------------------------- 
|                                                                             |
|           W    W    AA    RRRRR   N    N  II  N    N   GGGG   !!!           |
|           W    W   A  A   R    R  NN   N  II  NN   N  G    G  !!!           |
|           W    W  A    A  R    R  N N  N  II  N N  N  G       !!!           |
|           W WW W  AAAAAA  RRRRR   N  N N  II  N  N N  G  GGG   !            |
|           WW  WW  A    A  R   R   N   NN  II  N   NN  G    G                |
|           W    W  A    A  R    R  N    N  II  N    N   GGGG   !!!           |
|                                                                             |
|      For optimal performance we recommend to set                            |
|        NCORE= 4 - approx SQRT( number of cores)                             |
|      NCORE specifies how many cores store one orbital (NPAR=cpu/NCORE).     |
|      This setting can  greatly improve the performance of VASP for DFT.     |
|      The default, NPAR=number of cores might be grossly inefficient         |
|      on modern multi-core architectures or massively parallel machines.     |
|      Do your own testing !!!!                                               |
|      Unfortunately you need to use the default for GW and RPA calculations. |
|      (for HF NCORE is supported but not extensively tested yet)             |
|                                                                             |
 ----------------------------------------------------------------------------- 

 POTCAR:    PAW_PBE C_GW_new 19Mar2012            
   VRHFIN =C: s2p2                                                              
   LEXCH  = PE                                                                  
   EATOM  =   147.1560 eV,   10.8157 Ry                                         
                                                                                
   TITEL  = PAW_PBE C_GW_new 19Mar2012                                          
   LULTRA =        F    use ultrasoft PP ?                                      
   IUNSCR =        1    unscreen: 0-lin 1-nonlin 2-no                           
   RPACOR =    0.800    partial core radius                                     
   POMASS =   12.011; ZVAL   =    4.000    mass and valenz                      
   RCORE  =    1.600    outmost cutoff radius                                   
   RWIGS  =    1.600; RWIGS  =    0.847    wigner-seitz radius (au A)           
   ENMAX  =  413.992; ENMIN  =  310.494 eV                                      
   ICORE  =        3    local potential                                         
   LCOR   =        T    correct aug charges                                     
   LPAW   =        T    paw PP                                                  
   EAUG   = 1213.930                                                            
   DEXC   =    0.000                                                            
   RMAX   =    1.630    core radius for proj-oper                               
   RAUG   =    1.300    factor for augmentation sphere                          
   RDEP   =    1.601    radius for radial grids                                 
   RDEPT  =    1.200    core radius for aug-charge                              
                                                                                
   Atomic configuration                                                         
    5 entries                                                                   
     n  l   j            E        occ.                                          
     1  0  0.50      -273.3789   2.0000                                         
     2  0  0.50       -13.7508   2.0000                                         
     2  1  0.50        -5.2854   2.0000                                         
     3  2  1.50        -5.4423   0.0000                                         
     4  3  2.50        -5.4423   0.0000                                         
   Description                                                                  
     l       E           TYP  RCUT    TYP  RCUT                                 
     0    -13.7508457     23  1.200                                             
     0     -7.5219285     23  1.200                                             
     0    272.1165200     23  1.300                                             
     1     -5.2854382     23  1.500                                             
     1    108.8466080     23  1.500                                             
     2     27.2116520     23  1.500                                             
     2    190.4815640     23  1.600                                             
     3     54.4233040     23  1.400                                             
  local pseudopotential read in
  partial core-charges read in
  partial kinetic energy density read in
  kinetic energy density of atom read in
  atomic valenz-charges read in
  non local Contribution for L=           0  read in
    real space projection operators read in
  non local Contribution for L=           0  read in
    real space projection operators read in
  non local Contribution for L=           0  read in
    real space projection operators read in
  non local Contribution for L=           1  read in
    real space projection operators read in
  non local Contribution for L=           1  read in
    real space projection operators read in
  non local Contribution for L=           2  read in
    real space projection operators read in
  non local Contribution for L=           2  read in
    real space projection operators read in
    PAW grid and wavefunctions read in
 
   number of l-projection  operators is LMAX  =           7
   number of lm-projection operators is LMMAX =          19
 
 POTCAR:   PAW_PBE N_GW_new 19Mar2012             
   VRHFIN =N: s2p3                                                              
   LEXCH  = PE                                                                  
   EATOM  =   264.5486 eV,   19.4438 Ry                                         
                                                                                
   TITEL  = PAW_PBE N_GW_new 19Mar2012                                          
   LULTRA =        F    use ultrasoft PP ?                                      
   IUNSCR =        1    unscreen: 0-lin 1-nonlin 2-no                           
   RPACOR =    0.800    partial core radius                                     
   POMASS =   14.001; ZVAL   =    5.000    mass and valenz                      
   RCORE  =    1.600    outmost cutoff radius                                   
   RWIGS  =    1.600; RWIGS  =    0.847    wigner-seitz radius (au A)           
   ENMAX  =  420.902; ENMIN  =  315.677 eV                                      
   ICORE  =        3    local potential                                         
   LCOR   =        T    correct aug charges                                     
   LPAW   =        T    paw PP                                                  
   EAUG   = 1173.595                                                            
   DEXC   =    0.000                                                            
   RMAX   =    1.638    core radius for proj-oper                               
   RAUG   =    1.300    factor for augmentation sphere                          
   RDEP   =    1.609    radius for radial grids                                 
   RDEPT  =    1.200    core radius for aug-charge                              
                                                                                
   Atomic configuration                                                         
    5 entries                                                                   
     n  l   j            E        occ.                                          
     1  0  0.50      -384.7179   2.0000                                         
     2  0  0.50       -18.5828   2.0000                                         
     2  1  0.50        -7.0898   3.0000                                         
     3  2  1.50        -8.1635   0.0000                                         
     4  3  2.50        -8.1635   0.0000                                         
   Description                                                                  
     l       E           TYP  RCUT    TYP  RCUT                                 
     0    -18.5828120     23  1.150                                             
     0    -16.4356426     23  1.150                                             
     0    258.5106940     23  1.300                                             
     1     -7.0897854     23  1.500                                             
     1     -3.1993695     23  1.500                                             
     1    136.0582600     23  1.500                                             
     2     27.2116520     23  1.500                                             
     2    190.4815640     23  1.600                                             
     3     54.4233040     23  1.400                                             
  local pseudopotential read in
  partial core-charges read in
  partial kinetic energy density read in
  kinetic energy density of atom read in
  atomic valenz-charges read in
  non local Contribution for L=           0  read in
    real space projection operators read in
  non local Contribution for L=           0  read in
    real space projection operators read in
  non local Contribution for L=           0  read in
    real space projection operators read in
  non local Contribution for L=           1  read in
    real space projection operators read in
  non local Contribution for L=           1  read in
    real space projection operators read in
  non local Contribution for L=           1  read in
    real space projection operators read in
  non local Contribution for L=           2  read in
    real space projection operators read in
  non local Contribution for L=           2  read in
    real space projection operators read in
    PAW grid and wavefunctions read in
 
   number of l-projection  operators is LMAX  =           8
   number of lm-projection operators is LMMAX =          22
 

 ----------------------------------------------------------------------------- 
|                                                                             |
|  ADVICE TO THIS USER RUNNING 'VASP/VAMP'   (HEAR YOUR MASTER'S VOICE ...):  |
|                                                                             |
|      You have a (more or less) 'large supercell' and for larger cells       |
|      it might be more efficient to use real space projection opertators     |
|      So try LREAL= Auto  in the INCAR   file.                               |
|      Mind: At the moment your POTCAR file does not contain real space       |
|       projectors, and has to be modified,  BUT if you                       |
|      want to do an extremely  accurate calculation you might also keep the  |
|      reciprocal projection scheme          (i.e. LREAL=.FALSE.)             |
|                                                                             |
 ----------------------------------------------------------------------------- 

  PAW_PBE C_GW_new 19Mar2012            :
 energy of atom  1       EATOM= -147.1560
 kinetic energy error for atom=    0.0288 (will be added to EATOM!!)
 PAW_PBE N_GW_new 19Mar2012             :
 energy of atom  2       EATOM= -264.5486
 kinetic energy error for atom=    0.0732 (will be added to EATOM!!)
 
 
 POSCAR: Cubic diamond                           
  positions in cartesian coordinates
  No initial velocities read in
 exchange correlation table for  LEXCH =        8
   RHO(1)=    0.500       N(1)  =     2000
   RHO(2)=  100.500       N(2)  =     4000
 


--------------------------------------------------------------------------------------------------------


 ion  position               nearest neighbor table
   1  0.000  0.000  0.000-   2 1.54 128 1.54 413 1.54 484 1.54
   2  0.062  0.062  0.062-   1 1.54   3 1.54   4 1.54   5 1.54
   3  0.125  0.125  0.000-   2 1.54   6 1.54  31 1.54  32 1.54
   4  0.125  0.000  0.125-   2 1.54   7 1.54 102 1.54 104 1.54
   5  0.000  0.125  0.125-   2 1.54   8 1.54 388 1.54 389 1.54
   6  0.188  0.188  0.062-   3 1.54  36 1.54 133 1.54 161 1.54
   7  0.188  0.062  0.188-   4 1.54  11 1.54 133 1.54 137 1.54
   8  0.062  0.188  0.188-   5 1.54  11 1.54  36 1.54  41 1.54
   9  0.000  0.000  0.250-  10 1.54 104 1.54 389 1.54 492 1.54
  10  0.062  0.062  0.312-   9 1.54  11 1.54  12 1.54  13 1.54
  11  0.125  0.125  0.250-   7 1.54   8 1.54  10 1.54  14 1.54
  12  0.125  0.000  0.375-  10 1.54  15 1.54 110 1.54 112 1.54
  13  0.000  0.125  0.375-  10 1.54  16 1.54 396 1.54 397 1.54
  14  0.188  0.188  0.312-  11 1.54  44 1.54 141 1.54 169 1.54
  15  0.188  0.062  0.438-  12 1.54  19 1.54 141 1.54 145 1.54
  16  0.062  0.188  0.438-  13 1.54  19 1.54  44 1.54  49 1.54
  17  0.000  0.000  0.500-  18 1.54 112 1.54 397 1.54 500 1.54
  18  0.062  0.062  0.562-  17 1.54  19 1.54  20 1.54  21 1.54
  19  0.125  0.125  0.500-  15 1.54  16 1.54  18 1.54  22 1.54
  20  0.125  0.000  0.625-  18 1.54  23 1.54 118 1.54 120 1.54
  21  0.000  0.125  0.625-  18 1.54  24 1.54 404 1.54 405 1.54
  22  0.188  0.188  0.562-  19 1.54  52 1.54 149 1.54 177 1.54
  23  0.188  0.062  0.688-  20 1.54  27 1.54 149 1.54 153 1.54
  24  0.062  0.188  0.688-  21 1.54  27 1.54  52 1.54  57 1.54
  25  0.000  0.000  0.750-  26 1.54 120 1.54 405 1.54 508 1.54
  26  0.062  0.062  0.812-  25 1.54  27 1.54  28 1.54  29 1.54
  27  0.125  0.125  0.750-  23 1.54  24 1.54  26 1.54  30 1.54
  28  0.125  0.000  0.875-  26 1.54  31 1.54 126 1.54 128 1.54
  29  0.000  0.125  0.875-  26 1.54  32 1.54 412 1.54 413 1.54
  30  0.188  0.188  0.812-  27 1.54  60 1.54 157 1.54 185 1.54
  31  0.188  0.062  0.938-   3 1.54  28 1.54 129 1.54 157 1.54
  32  0.062  0.188  0.938-   3 1.54  29 1.54  33 1.54  60 1.54
  33  0.000  0.250  0.000-  32 1.54  34 1.54 388 1.54 445 1.54
  34  0.062  0.312  0.062-  33 1.54  35 1.54  36 1.54  37 1.54
  35  0.125  0.375  0.000-  34 1.54  38 1.54  63 1.54  64 1.54
  36  0.125  0.250  0.125-   6 1.54   8 1.54  34 1.54  39 1.54
  37  0.000  0.375  0.125-  34 1.54  40 1.54 420 1.54 421 1.54
  38  0.188  0.438  0.062-  35 1.54  68 1.54 165 1.54 193 1.54
  39  0.188  0.312  0.188-  36 1.54  43 1.54 165 1.54 169 1.54
  40  0.062  0.438  0.188-  37 1.54  43 1.54  68 1.54  73 1.54
  41  0.000  0.250  0.250-   8 1.54  42 1.54 396 1.54 421 1.54
  42  0.062  0.312  0.312-  41 1.54  43 1.54  44 1.54  45 1.54
  43  0.125  0.375  0.250-  39 1.54  40 1.54  42 1.54  46 1.54
  44  0.125  0.250  0.375-  14 1.54  16 1.54  42 1.54  47 1.54
  45  0.000  0.375  0.375-  42 1.54  48 1.54 428 1.54 429 1.54
  46  0.188  0.438  0.312-  43 1.54  76 1.54 173 1.54 201 1.54
  47  0.188  0.312  0.438-  44 1.54  51 1.54 173 1.54 177 1.54
  48  0.062  0.438  0.438-  45 1.54  51 1.54  76 1.54  81 1.54
  49  0.000  0.250  0.500-  16 1.54  50 1.54 404 1.54 429 1.54
  50  0.062  0.312  0.562-  49 1.54  51 1.54  52 1.54  53 1.54
  51  0.125  0.375  0.500-  47 1.54  48 1.54  50 1.54  54 1.54
  52  0.125  0.250  0.625-  22 1.54  24 1.54  50 1.54  55 1.54
  53  0.000  0.375  0.625-  50 1.54  56 1.54 436 1.54 437 1.54
  54  0.188  0.438  0.562-  51 1.54  84 1.54 181 1.54 209 1.54
  55  0.188  0.312  0.688-  52 1.54  59 1.54 181 1.54 185 1.54
  56  0.062  0.438  0.688-  53 1.54  59 1.54  84 1.54  89 1.54
  57  0.000  0.250  0.750-  24 1.54  58 1.54 412 1.54 437 1.54
  58  0.062  0.312  0.812-  57 1.54  59 1.54  60 1.54  61 1.54
  59  0.125  0.375  0.750-  55 1.54  56 1.54  58 1.54  62 1.54
  60  0.125  0.250  0.875-  30 1.54  32 1.54  58 1.54  63 1.54
  61  0.000  0.375  0.875-  58 1.54  64 1.54 444 1.54 445 1.54
  62  0.188  0.438  0.812-  59 1.54  92 1.54 189 1.54 217 1.54
  63  0.188  0.312  0.938-  35 1.54  60 1.54 161 1.54 189 1.54
  64  0.062  0.438  0.938-  35 1.54  61 1.54  65 1.54  92 1.54
  65  0.000  0.500  0.000-  64 1.54  66 1.54 420 1.54 477 1.54
  66  0.062  0.562  0.062-  65 1.54  67 1.54  68 1.54  69 1.54
  67  0.125  0.625  0.000-  66 1.54  70 1.54  95 1.54  96 1.54
  68  0.125  0.500  0.125-  38 1.54  40 1.54  66 1.54  71 1.54
  69  0.000  0.625  0.125-  66 1.54  72 1.54 452 1.54 453 1.54
  70  0.188  0.688  0.062-  67 1.54 100 1.54 197 1.54 225 1.54
  71  0.188  0.562  0.188-  68 1.54  75 1.54 197 1.54 201 1.54
  72  0.062  0.688  0.188-  69 1.54  75 1.54 100 1.54 105 1.54
  73  0.000  0.500  0.250-  40 1.54  74 1.54 428 1.54 453 1.54
  74  0.062  0.562  0.312-  73 1.54  75 1.54  76 1.54  77 1.54
  75  0.125  0.625  0.250-  71 1.54  72 1.54  74 1.54  78 1.54
  76  0.125  0.500  0.375-  46 1.54  48 1.54  74 1.54  79 1.54
  77  0.000  0.625  0.375-  74 1.54  80 1.54 460 1.54 461 1.54
  78  0.188  0.688  0.312-  75 1.54 108 1.54 205 1.54 233 1.54
  79  0.188  0.562  0.438-  76 1.54  83 1.54 205 1.54 209 1.54
  80  0.062  0.688  0.438-  77 1.54  83 1.54 108 1.54 113 1.54
  81  0.000  0.500  0.500-  48 1.54  82 1.54 436 1.54 461 1.54
  82  0.062  0.562  0.562-  81 1.54  83 1.54  84 1.54  85 1.54
  83  0.125  0.625  0.500-  79 1.54  80 1.54  82 1.54  86 1.54
  84  0.125  0.500  0.625-  54 1.54  56 1.54  82 1.54  87 1.54
  85  0.000  0.625  0.625-  82 1.54  88 1.54 468 1.54 469 1.54
  86  0.188  0.688  0.562-  83 1.54 116 1.54 213 1.54 241 1.54
  87  0.188  0.562  0.688-  84 1.54  91 1.54 213 1.54 217 1.54
  88  0.062  0.688  0.688-  85 1.54  91 1.54 116 1.54 121 1.54
  89  0.000  0.500  0.750-  56 1.54  90 1.54 444 1.54 469 1.54
  90  0.062  0.562  0.812-  89 1.54  91 1.54  92 1.54  93 1.54
  91  0.125  0.625  0.750-  87 1.54  88 1.54  90 1.54  94 1.54
  92  0.125  0.500  0.875-  62 1.54  64 1.54  90 1.54  95 1.54
  93  0.000  0.625  0.875-  90 1.54  96 1.54 476 1.54 477 1.54
  94  0.188  0.688  0.812-  91 1.54 124 1.54 221 1.54 249 1.54
  95  0.188  0.562  0.938-  67 1.54  92 1.54 193 1.54 221 1.54
  96  0.062  0.688  0.938-  67 1.54  93 1.54  97 1.54 124 1.54
  97  0.000  0.750  0.000-  96 1.54  98 1.54 452 1.54 509 1.54
  98  0.062  0.812  0.062-  97 1.54  99 1.54 100 1.54 101 1.54
  99  0.125  0.875  0.000-  98 1.54 102 1.54 127 1.54 128 1.54
 100  0.125  0.750  0.125-  70 1.54  72 1.54  98 1.54 103 1.54
 101  0.000  0.875  0.125-  98 1.54 104 1.54 484 1.54 485 1.54
 102  0.188  0.938  0.062-   4 1.54  99 1.54 129 1.54 229 1.54
 103  0.188  0.812  0.188- 100 1.54 107 1.54 229 1.54 233 1.54
 104  0.062  0.938  0.188-   4 1.54   9 1.54 101 1.54 107 1.54
 105  0.000  0.750  0.250-  72 1.54 106 1.54 460 1.54 485 1.54
 106  0.062  0.812  0.312- 105 1.54 107 1.54 108 1.54 109 1.54
 107  0.125  0.875  0.250- 103 1.54 104 1.54 106 1.54 110 1.54
 108  0.125  0.750  0.375-  78 1.54  80 1.54 106 1.54 111 1.54
 109  0.000  0.875  0.375- 106 1.54 112 1.54 492 1.54 493 1.54
 110  0.188  0.938  0.312-  12 1.54 107 1.54 137 1.54 237 1.54
 111  0.188  0.812  0.438- 108 1.54 115 1.54 237 1.54 241 1.54
 112  0.062  0.938  0.438-  12 1.54  17 1.54 109 1.54 115 1.54
 113  0.000  0.750  0.500-  80 1.54 114 1.54 468 1.54 493 1.54
 114  0.062  0.812  0.562- 113 1.54 115 1.54 116 1.54 117 1.54
 115  0.125  0.875  0.500- 111 1.54 112 1.54 114 1.54 118 1.54
 116  0.125  0.750  0.625-  86 1.54  88 1.54 114 1.54 119 1.54
 117  0.000  0.875  0.625- 114 1.54 120 1.54 500 1.54 501 1.54
 118  0.188  0.938  0.562-  20 1.54 115 1.54 145 1.54 245 1.54
 119  0.188  0.812  0.688- 116 1.54 123 1.54 245 1.54 249 1.54
 120  0.062  0.938  0.688-  20 1.54  25 1.54 117 1.54 123 1.54
 121  0.000  0.750  0.750-  88 1.54 122 1.54 476 1.54 501 1.54
 122  0.062  0.812  0.812- 121 1.54 123 1.54 124 1.54 125 1.54
 123  0.125  0.875  0.750- 119 1.54 120 1.54 122 1.54 126 1.54
 124  0.125  0.750  0.875-  94 1.54  96 1.54 122 1.54 127 1.54
 125  0.000  0.875  0.875- 122 1.54 128 1.54 508 1.54 509 1.54
 126  0.188  0.938  0.812-  28 1.54 123 1.54 153 1.54 253 1.54
 127  0.188  0.812  0.938-  99 1.54 124 1.54 225 1.54 253 1.54
 128  0.062  0.938  0.938-   1 1.54  28 1.54  99 1.54 125 1.54
 129  0.250  0.000  0.000-  31 1.54 102 1.54 130 1.54 256 1.54
 130  0.312  0.062  0.062- 129 1.54 131 1.54 132 1.54 133 1.54
 131  0.375  0.125  0.000- 130 1.54 134 1.54 159 1.54 160 1.54
 132  0.375  0.000  0.125- 130 1.54 135 1.54 230 1.54 232 1.54
 133  0.250  0.125  0.125-   6 1.54   7 1.54 130 1.54 136 1.54
 134  0.438  0.188  0.062- 131 1.54 164 1.54 261 1.54 289 1.54
 135  0.438  0.062  0.188- 132 1.54 139 1.54 261 1.54 265 1.54
 136  0.312  0.188  0.188- 133 1.54 139 1.54 164 1.54 169 1.54
 137  0.250  0.000  0.250-   7 1.54 110 1.54 138 1.54 232 1.54
 138  0.312  0.062  0.312- 137 1.54 139 1.54 140 1.54 141 1.54
 139  0.375  0.125  0.250- 135 1.54 136 1.54 138 1.54 142 1.54
 140  0.375  0.000  0.375- 138 1.54 143 1.54 238 1.54 240 1.54
 141  0.250  0.125  0.375-  14 1.54  15 1.54 138 1.54 144 1.54
 142  0.438  0.188  0.312- 139 1.54 172 1.54 269 1.54 297 1.54
 143  0.438  0.062  0.438- 140 1.54 147 1.54 269 1.54 273 1.54
 144  0.312  0.188  0.438- 141 1.54 147 1.54 172 1.54 177 1.54
 145  0.250  0.000  0.500-  15 1.54 118 1.54 146 1.54 240 1.54
 146  0.312  0.062  0.562- 145 1.54 147 1.54 148 1.54 149 1.54
 147  0.375  0.125  0.500- 143 1.54 144 1.54 146 1.54 150 1.54
 148  0.375  0.000  0.625- 146 1.54 151 1.54 246 1.54 248 1.54
 149  0.250  0.125  0.625-  22 1.54  23 1.54 146 1.54 152 1.54
 150  0.438  0.188  0.562- 147 1.54 180 1.54 277 1.54 305 1.54
 151  0.438  0.062  0.688- 148 1.54 155 1.54 277 1.54 281 1.54
 152  0.312  0.188  0.688- 149 1.54 155 1.54 180 1.54 185 1.54
 153  0.250  0.000  0.750-  23 1.54 126 1.54 154 1.54 248 1.54
 154  0.312  0.062  0.812- 153 1.54 155 1.54 156 1.54 157 1.54
 155  0.375  0.125  0.750- 151 1.54 152 1.54 154 1.54 158 1.54
 156  0.375  0.000  0.875- 154 1.54 159 1.54 254 1.54 256 1.54
 157  0.250  0.125  0.875-  30 1.54  31 1.54 154 1.54 160 1.54
 158  0.438  0.188  0.812- 155 1.54 188 1.54 285 1.54 313 1.54
 159  0.438  0.062  0.938- 131 1.54 156 1.54 257 1.54 285 1.54
 160  0.312  0.188  0.938- 131 1.54 157 1.54 161 1.54 188 1.54
 161  0.250  0.250  0.000-   6 1.54  63 1.54 160 1.54 162 1.54
 162  0.312  0.312  0.062- 161 1.54 163 1.54 164 1.54 165 1.54
 163  0.375  0.375  0.000- 162 1.54 166 1.54 191 1.54 192 1.54
 164  0.375  0.250  0.125- 134 1.54 136 1.54 162 1.54 167 1.54
 165  0.250  0.375  0.125-  38 1.54  39 1.54 162 1.54 168 1.54
 166  0.438  0.438  0.062- 163 1.54 196 1.54 293 1.54 321 1.54
 167  0.438  0.312  0.188- 164 1.54 171 1.54 293 1.54 297 1.54
 168  0.312  0.438  0.188- 165 1.54 171 1.54 196 1.54 201 1.54
 169  0.250  0.250  0.250-  14 1.54  39 1.54 136 1.54 170 1.54
 170  0.312  0.312  0.312- 169 1.54 171 1.54 172 1.54 173 1.54
 171  0.375  0.375  0.250- 167 1.54 168 1.54 170 1.54 174 1.54
 172  0.375  0.250  0.375- 142 1.54 144 1.54 170 1.54 175 1.54
 173  0.250  0.375  0.375-  46 1.54  47 1.54 170 1.54 176 1.54
 174  0.438  0.438  0.312- 171 1.54 204 1.54 301 1.54 329 1.54
 175  0.438  0.312  0.438- 172 1.54 179 1.54 301 1.54 305 1.54
 176  0.312  0.438  0.438- 173 1.54 179 1.54 204 1.54 209 1.54
 177  0.250  0.250  0.500-  22 1.54  47 1.54 144 1.54 178 1.54
 178  0.312  0.312  0.562- 177 1.54 179 1.54 180 1.54 181 1.54
 179  0.375  0.375  0.500- 175 1.54 176 1.54 178 1.54 182 1.54
 180  0.375  0.250  0.625- 150 1.54 152 1.54 178 1.54 183 1.54
 181  0.250  0.375  0.625-  54 1.54  55 1.54 178 1.54 184 1.54
 182  0.438  0.438  0.562- 179 1.54 212 1.54 309 1.54 511 1.54
 183  0.438  0.312  0.688- 180 1.54 187 1.54 309 1.54 313 1.54
 184  0.312  0.438  0.688- 181 1.54 187 1.54 212 1.54 217 1.54
 185  0.250  0.250  0.750-  30 1.54  55 1.54 152 1.54 186 1.54
 186  0.312  0.312  0.812- 185 1.54 187 1.54 188 1.54 189 1.54
 187  0.375  0.375  0.750- 183 1.54 184 1.54 186 1.54 190 1.54
 188  0.375  0.250  0.875- 158 1.54 160 1.54 186 1.54 191 1.54
 189  0.250  0.375  0.875-  62 1.54  63 1.54 186 1.54 192 1.54
 190  0.438  0.438  0.812- 187 1.54 220 1.54 317 1.54 343 1.54
 191  0.438  0.312  0.938- 163 1.54 188 1.54 289 1.54 317 1.54
 192  0.312  0.438  0.938- 163 1.54 189 1.54 193 1.54 220 1.54
 193  0.250  0.500  0.000-  38 1.54  95 1.54 192 1.54 194 1.54
 194  0.312  0.562  0.062- 193 1.54 195 1.54 196 1.54 197 1.54
 195  0.375  0.625  0.000- 194 1.54 198 1.54 223 1.54 224 1.54
 196  0.375  0.500  0.125- 166 1.54 168 1.54 194 1.54 199 1.54
 197  0.250  0.625  0.125-  70 1.54  71 1.54 194 1.54 200 1.54
 198  0.438  0.688  0.062- 195 1.54 228 1.54 325 1.54 351 1.54
 199  0.438  0.562  0.188- 196 1.54 203 1.54 325 1.54 329 1.54
 200  0.312  0.688  0.188- 197 1.54 203 1.54 228 1.54 233 1.54
 201  0.250  0.500  0.250-  46 1.54  71 1.54 168 1.54 202 1.54
 202  0.312  0.562  0.312- 201 1.54 203 1.54 204 1.54 205 1.54
 203  0.375  0.625  0.250- 199 1.54 200 1.54 202 1.54 206 1.54
 204  0.375  0.500  0.375- 174 1.54 176 1.54 202 1.54 207 1.54
 205  0.250  0.625  0.375-  78 1.54  79 1.54 202 1.54 208 1.54
 206  0.438  0.688  0.312- 203 1.54 236 1.54 333 1.54 359 1.54
 207  0.438  0.562  0.438- 204 1.54 211 1.54 333 1.54 511 1.54
 208  0.312  0.688  0.438- 205 1.54 211 1.54 236 1.54 241 1.54
 209  0.250  0.500  0.500-  54 1.54  79 1.54 176 1.54 210 1.54
 210  0.312  0.562  0.562- 209 1.54 211 1.54 212 1.54 213 1.54
 211  0.375  0.625  0.500- 207 1.54 208 1.54 210 1.54 214 1.54
 212  0.375  0.500  0.625- 182 1.54 184 1.54 210 1.54 215 1.54
 213  0.250  0.625  0.625-  86 1.54  87 1.54 210 1.54 216 1.54
 214  0.438  0.688  0.562- 211 1.54 244 1.54 339 1.54 367 1.54
 215  0.438  0.562  0.688- 212 1.54 219 1.54 339 1.54 343 1.54
 216  0.312  0.688  0.688- 213 1.54 219 1.54 244 1.54 249 1.54
 217  0.250  0.500  0.750-  62 1.54  87 1.54 184 1.54 218 1.54
 218  0.312  0.562  0.812- 217 1.54 219 1.54 220 1.54 221 1.54
 219  0.375  0.625  0.750- 215 1.54 216 1.54 218 1.54 222 1.54
 220  0.375  0.500  0.875- 190 1.54 192 1.54 218 1.54 223 1.54
 221  0.250  0.625  0.875-  94 1.54  95 1.54 218 1.54 224 1.54
 222  0.438  0.688  0.812- 219 1.54 252 1.54 347 1.54 375 1.54
 223  0.438  0.562  0.938- 195 1.54 220 1.54 321 1.54 347 1.54
 224  0.312  0.688  0.938- 195 1.54 221 1.54 225 1.54 252 1.54
 225  0.250  0.750  0.000-  70 1.54 127 1.54 224 1.54 226 1.54
 226  0.312  0.812  0.062- 225 1.54 227 1.54 228 1.54 229 1.54
 227  0.375  0.875  0.000- 226 1.54 230 1.54 255 1.54 256 1.54
 228  0.375  0.750  0.125- 198 1.54 200 1.54 226 1.54 231 1.54
 229  0.250  0.875  0.125- 102 1.54 103 1.54 226 1.54 232 1.54
 230  0.438  0.938  0.062- 132 1.54 227 1.54 257 1.54 355 1.54
 231  0.438  0.812  0.188- 228 1.54 235 1.54 355 1.54 359 1.54
 232  0.312  0.938  0.188- 132 1.54 137 1.54 229 1.54 235 1.54
 233  0.250  0.750  0.250-  78 1.54 103 1.54 200 1.54 234 1.54
 234  0.312  0.812  0.312- 233 1.54 235 1.54 236 1.54 237 1.54
 235  0.375  0.875  0.250- 231 1.54 232 1.54 234 1.54 238 1.54
 236  0.375  0.750  0.375- 206 1.54 208 1.54 234 1.54 239 1.54
 237  0.250  0.875  0.375- 110 1.54 111 1.54 234 1.54 240 1.54
 238  0.438  0.938  0.312- 140 1.54 235 1.54 265 1.54 363 1.54
 239  0.438  0.812  0.438- 236 1.54 243 1.54 363 1.54 367 1.54
 240  0.312  0.938  0.438- 140 1.54 145 1.54 237 1.54 243 1.54
 241  0.250  0.750  0.500-  86 1.54 111 1.54 208 1.54 242 1.54
 242  0.312  0.812  0.562- 241 1.54 243 1.54 244 1.54 245 1.54
 243  0.375  0.875  0.500- 239 1.54 240 1.54 242 1.54 246 1.54
 244  0.375  0.750  0.625- 214 1.54 216 1.54 242 1.54 247 1.54
 245  0.250  0.875  0.625- 118 1.54 119 1.54 242 1.54 248 1.54
 246  0.438  0.938  0.562- 148 1.54 243 1.54 273 1.54 371 1.54
 247  0.438  0.812  0.688- 244 1.54 251 1.54 371 1.54 375 1.54
 248  0.312  0.938  0.688- 148 1.54 153 1.54 245 1.54 251 1.54
 249  0.250  0.750  0.750-  94 1.54 119 1.54 216 1.54 250 1.54
 250  0.312  0.812  0.812- 249 1.54 251 1.54 252 1.54 253 1.54
 251  0.375  0.875  0.750- 247 1.54 248 1.54 250 1.54 254 1.54
 252  0.375  0.750  0.875- 222 1.54 224 1.54 250 1.54 255 1.54
 253  0.250  0.875  0.875- 126 1.54 127 1.54 250 1.54 256 1.54
 254  0.438  0.938  0.812- 156 1.54 251 1.54 281 1.54 379 1.54
 255  0.438  0.812  0.938- 227 1.54 252 1.54 351 1.54 379 1.54
 256  0.312  0.938  0.938- 129 1.54 156 1.54 227 1.54 253 1.54
 257  0.500  0.000  0.000- 159 1.54 230 1.54 258 1.54 382 1.54
 258  0.562  0.062  0.062- 257 1.54 259 1.54 260 1.54 261 1.54
 259  0.625  0.125  0.000- 258 1.54 262 1.54 287 1.54 288 1.54
 260  0.625  0.000  0.125- 258 1.54 263 1.54 356 1.54 358 1.54
 261  0.500  0.125  0.125- 134 1.54 135 1.54 258 1.54 264 1.54
 262  0.688  0.188  0.062- 259 1.54 292 1.54 387 1.54 415 1.54
 263  0.688  0.062  0.188- 260 1.54 267 1.54 387 1.54 391 1.54
 264  0.562  0.188  0.188- 261 1.54 267 1.54 292 1.54 297 1.54
 265  0.500  0.000  0.250- 135 1.54 238 1.54 266 1.54 358 1.54
 266  0.562  0.062  0.312- 265 1.54 267 1.54 268 1.54 269 1.54
 267  0.625  0.125  0.250- 263 1.54 264 1.54 266 1.54 270 1.54
 268  0.625  0.000  0.375- 266 1.54 271 1.54 364 1.54 366 1.54
 269  0.500  0.125  0.375- 142 1.54 143 1.54 266 1.54 272 1.54
 270  0.688  0.188  0.312- 267 1.54 300 1.54 395 1.54 423 1.54
 271  0.688  0.062  0.438- 268 1.54 275 1.54 395 1.54 399 1.54
 272  0.562  0.188  0.438- 269 1.54 275 1.54 300 1.54 305 1.54
 273  0.500  0.000  0.500- 143 1.54 246 1.54 274 1.54 366 1.54
 274  0.562  0.062  0.562- 273 1.54 275 1.54 276 1.54 277 1.54
 275  0.625  0.125  0.500- 271 1.54 272 1.54 274 1.54 278 1.54
 276  0.625  0.000  0.625- 274 1.54 279 1.54 372 1.54 374 1.54
 277  0.500  0.125  0.625- 150 1.54 151 1.54 274 1.54 280 1.54
 278  0.688  0.188  0.562- 275 1.54 308 1.54 403 1.54 431 1.54
 279  0.688  0.062  0.688- 276 1.54 283 1.54 403 1.54 407 1.54
 280  0.562  0.188  0.688- 277 1.54 283 1.54 308 1.54 313 1.54
 281  0.500  0.000  0.750- 151 1.54 254 1.54 282 1.54 374 1.54
 282  0.562  0.062  0.812- 281 1.54 283 1.54 284 1.54 285 1.54
 283  0.625  0.125  0.750- 279 1.54 280 1.54 282 1.54 286 1.54
 284  0.625  0.000  0.875- 282 1.54 287 1.54 380 1.54 382 1.54
 285  0.500  0.125  0.875- 158 1.54 159 1.54 282 1.54 288 1.54
 286  0.688  0.188  0.812- 283 1.54 316 1.54 411 1.54 439 1.54
 287  0.688  0.062  0.938- 259 1.54 284 1.54 383 1.54 411 1.54
 288  0.562  0.188  0.938- 259 1.54 285 1.54 289 1.54 316 1.54
 289  0.500  0.250  0.000- 134 1.54 191 1.54 288 1.54 290 1.54
 290  0.562  0.312  0.062- 289 1.54 291 1.54 292 1.54 293 1.54
 291  0.625  0.375  0.000- 290 1.54 294 1.54 319 1.54 320 1.54
 292  0.625  0.250  0.125- 262 1.54 264 1.54 290 1.54 295 1.54
 293  0.500  0.375  0.125- 166 1.54 167 1.54 290 1.54 296 1.54
 294  0.688  0.438  0.062- 291 1.54 324 1.54 419 1.54 447 1.54
 295  0.688  0.312  0.188- 292 1.54 299 1.54 419 1.54 423 1.54
 296  0.562  0.438  0.188- 293 1.54 299 1.54 324 1.54 329 1.54
 297  0.500  0.250  0.250- 142 1.54 167 1.54 264 1.54 298 1.54
 298  0.562  0.312  0.312- 297 1.54 299 1.54 300 1.54 301 1.54
 299  0.625  0.375  0.250- 295 1.54 296 1.54 298 1.54 302 1.54
 300  0.625  0.250  0.375- 270 1.54 272 1.54 298 1.54 303 1.54
 301  0.500  0.375  0.375- 174 1.54 175 1.54 298 1.54 304 1.54
 302  0.688  0.438  0.312- 299 1.54 332 1.54 427 1.54 455 1.54
 303  0.688  0.312  0.438- 300 1.54 307 1.54 427 1.54 431 1.54
 304  0.562  0.438  0.438- 301 1.54 307 1.54 332 1.54 511 1.54
 305  0.500  0.250  0.500- 150 1.54 175 1.54 272 1.54 306 1.54
 306  0.562  0.312  0.562- 305 1.54 307 1.54 308 1.54 309 1.54
 307  0.625  0.375  0.500- 303 1.54 304 1.54 306 1.54 310 1.54
 308  0.625  0.250  0.625- 278 1.54 280 1.54 306 1.54 311 1.54
 309  0.500  0.375  0.625- 182 1.54 183 1.54 306 1.54 312 1.54
 310  0.688  0.438  0.562- 307 1.54 338 1.54 435 1.54 463 1.54
 311  0.688  0.312  0.688- 308 1.54 315 1.54 435 1.54 439 1.54
 312  0.562  0.438  0.688- 309 1.54 315 1.54 338 1.54 343 1.54
 313  0.500  0.250  0.750- 158 1.54 183 1.54 280 1.54 314 1.54
 314  0.562  0.312  0.812- 313 1.54 315 1.54 316 1.54 317 1.54
 315  0.625  0.375  0.750- 311 1.54 312 1.54 314 1.54 318 1.54
 316  0.625  0.250  0.875- 286 1.54 288 1.54 314 1.54 319 1.54
 317  0.500  0.375  0.875- 190 1.54 191 1.54 314 1.54 320 1.54
 318  0.688  0.438  0.812- 315 1.54 346 1.54 443 1.54 471 1.54
 319  0.688  0.312  0.938- 291 1.54 316 1.54 415 1.54 443 1.54
 320  0.562  0.438  0.938- 291 1.54 317 1.54 321 1.54 346 1.54
 321  0.500  0.500  0.000- 166 1.54 223 1.54 320 1.54 322 1.54
 322  0.562  0.562  0.062- 321 1.54 323 1.54 324 1.54 325 1.54
 323  0.625  0.625  0.000- 322 1.54 326 1.54 349 1.54 350 1.54
 324  0.625  0.500  0.125- 294 1.54 296 1.54 322 1.54 327 1.54
 325  0.500  0.625  0.125- 198 1.54 199 1.54 322 1.54 328 1.54
 326  0.688  0.688  0.062- 323 1.54 354 1.54 451 1.54 479 1.54
 327  0.688  0.562  0.188- 324 1.54 331 1.54 451 1.54 455 1.54
 328  0.562  0.688  0.188- 325 1.54 331 1.54 354 1.54 359 1.54
 329  0.500  0.500  0.250- 174 1.54 199 1.54 296 1.54 330 1.54
 330  0.562  0.562  0.312- 329 1.54 331 1.54 332 1.54 333 1.54
 331  0.625  0.625  0.250- 327 1.54 328 1.54 330 1.54 334 1.54
 332  0.625  0.500  0.375- 302 1.54 304 1.54 330 1.54 335 1.54
 333  0.500  0.625  0.375- 206 1.54 207 1.54 330 1.54 336 1.54
 334  0.688  0.688  0.312- 331 1.54 362 1.54 459 1.54 487 1.54
 335  0.688  0.562  0.438- 332 1.54 337 1.54 459 1.54 463 1.54
 336  0.562  0.688  0.438- 333 1.54 337 1.54 362 1.54 367 1.54
 337  0.625  0.625  0.500- 335 1.54 336 1.54 340 1.54
 338  0.625  0.500  0.625- 310 1.54 312 1.54 341 1.54
 339  0.500  0.625  0.625- 214 1.54 215 1.54 342 1.54
 340  0.688  0.688  0.562- 337 1.54 370 1.54 467 1.54 495 1.54
 341  0.688  0.562  0.688- 338 1.54 345 1.54 467 1.54 471 1.54
 342  0.562  0.688  0.688- 339 1.54 345 1.54 370 1.54 375 1.54
 343  0.500  0.500  0.750- 190 1.54 215 1.54 312 1.54 344 1.54
 344  0.562  0.562  0.812- 343 1.54 345 1.54 346 1.54 347 1.54
 345  0.625  0.625  0.750- 341 1.54 342 1.54 344 1.54 348 1.54
 346  0.625  0.500  0.875- 318 1.54 320 1.54 344 1.54 349 1.54
 347  0.500  0.625  0.875- 222 1.54 223 1.54 344 1.54 350 1.54
 348  0.688  0.688  0.812- 345 1.54 378 1.54 475 1.54 503 1.54
 349  0.688  0.562  0.938- 323 1.54 346 1.54 447 1.54 475 1.54
 350  0.562  0.688  0.938- 323 1.54 347 1.54 351 1.54 378 1.54
 351  0.500  0.750  0.000- 198 1.54 255 1.54 350 1.54 352 1.54
 352  0.562  0.812  0.062- 351 1.54 353 1.54 354 1.54 355 1.54
 353  0.625  0.875  0.000- 352 1.54 356 1.54 381 1.54 382 1.54
 354  0.625  0.750  0.125- 326 1.54 328 1.54 352 1.54 357 1.54
 355  0.500  0.875  0.125- 230 1.54 231 1.54 352 1.54 358 1.54
 356  0.688  0.938  0.062- 260 1.54 353 1.54 383 1.54 483 1.54
 357  0.688  0.812  0.188- 354 1.54 361 1.54 483 1.54 487 1.54
 358  0.562  0.938  0.188- 260 1.54 265 1.54 355 1.54 361 1.54
 359  0.500  0.750  0.250- 206 1.54 231 1.54 328 1.54 360 1.54
 360  0.562  0.812  0.312- 359 1.54 361 1.54 362 1.54 363 1.54
 361  0.625  0.875  0.250- 357 1.54 358 1.54 360 1.54 364 1.54
 362  0.625  0.750  0.375- 334 1.54 336 1.54 360 1.54 365 1.54
 363  0.500  0.875  0.375- 238 1.54 239 1.54 360 1.54 366 1.54
 364  0.688  0.938  0.312- 268 1.54 361 1.54 391 1.54 491 1.54
 365  0.688  0.812  0.438- 362 1.54 369 1.54 491 1.54 495 1.54
 366  0.562  0.938  0.438- 268 1.54 273 1.54 363 1.54 369 1.54
 367  0.500  0.750  0.500- 214 1.54 239 1.54 336 1.54 368 1.54
 368  0.562  0.812  0.562- 367 1.54 369 1.54 370 1.54 371 1.54
 369  0.625  0.875  0.500- 365 1.54 366 1.54 368 1.54 372 1.54
 370  0.625  0.750  0.625- 340 1.54 342 1.54 368 1.54 373 1.54
 371  0.500  0.875  0.625- 246 1.54 247 1.54 368 1.54 374 1.54
 372  0.688  0.938  0.562- 276 1.54 369 1.54 399 1.54 499 1.54
 373  0.688  0.812  0.688- 370 1.54 377 1.54 499 1.54 503 1.54
 374  0.562  0.938  0.688- 276 1.54 281 1.54 371 1.54 377 1.54
 375  0.500  0.750  0.750- 222 1.54 247 1.54 342 1.54 376 1.54
 376  0.562  0.812  0.812- 375 1.54 377 1.54 378 1.54 379 1.54
 377  0.625  0.875  0.750- 373 1.54 374 1.54 376 1.54 380 1.54
 378  0.625  0.750  0.875- 348 1.54 350 1.54 376 1.54 381 1.54
 379  0.500  0.875  0.875- 254 1.54 255 1.54 376 1.54 382 1.54
 380  0.688  0.938  0.812- 284 1.54 377 1.54 407 1.54 507 1.54
 381  0.688  0.812  0.938- 353 1.54 378 1.54 479 1.54 507 1.54
 382  0.562  0.938  0.938- 257 1.54 284 1.54 353 1.54 379 1.54
 383  0.750  0.000  0.000- 287 1.54 356 1.54 384 1.54 510 1.54
 384  0.812  0.062  0.062- 383 1.54 385 1.54 386 1.54 387 1.54
 385  0.875  0.125  0.000- 384 1.54 388 1.54 413 1.54 414 1.54
 386  0.875  0.000  0.125- 384 1.54 389 1.54 484 1.54 486 1.54
 387  0.750  0.125  0.125- 262 1.54 263 1.54 384 1.54 390 1.54
 388  0.938  0.188  0.062-   5 1.54  33 1.54 385 1.54 418 1.54
 389  0.938  0.062  0.188-   5 1.54   9 1.54 386 1.54 393 1.54
 390  0.812  0.188  0.188- 387 1.54 393 1.54 418 1.54 423 1.54
 391  0.750  0.000  0.250- 263 1.54 364 1.54 392 1.54 486 1.54
 392  0.812  0.062  0.312- 391 1.54 393 1.54 394 1.54 395 1.54
 393  0.875  0.125  0.250- 389 1.54 390 1.54 392 1.54 396 1.54
 394  0.875  0.000  0.375- 392 1.54 397 1.54 492 1.54 494 1.54
 395  0.750  0.125  0.375- 270 1.54 271 1.54 392 1.54 398 1.54
 396  0.938  0.188  0.312-  13 1.54  41 1.54 393 1.54 426 1.54
 397  0.938  0.062  0.438-  13 1.54  17 1.54 394 1.54 401 1.54
 398  0.812  0.188  0.438- 395 1.54 401 1.54 426 1.54 431 1.54
 399  0.750  0.000  0.500- 271 1.54 372 1.54 400 1.54 494 1.54
 400  0.812  0.062  0.562- 399 1.54 401 1.54 402 1.54 403 1.54
 401  0.875  0.125  0.500- 397 1.54 398 1.54 400 1.54 404 1.54
 402  0.875  0.000  0.625- 400 1.54 405 1.54 500 1.54 502 1.54
 403  0.750  0.125  0.625- 278 1.54 279 1.54 400 1.54 406 1.54
 404  0.938  0.188  0.562-  21 1.54  49 1.54 401 1.54 434 1.54
 405  0.938  0.062  0.688-  21 1.54  25 1.54 402 1.54 409 1.54
 406  0.812  0.188  0.688- 403 1.54 409 1.54 434 1.54 439 1.54
 407  0.750  0.000  0.750- 279 1.54 380 1.54 408 1.54 502 1.54
 408  0.812  0.062  0.812- 407 1.54 409 1.54 410 1.54 411 1.54
 409  0.875  0.125  0.750- 405 1.54 406 1.54 408 1.54 412 1.54
 410  0.875  0.000  0.875- 408 1.54 413 1.54 508 1.54 510 1.54
 411  0.750  0.125  0.875- 286 1.54 287 1.54 408 1.54 414 1.54
 412  0.938  0.188  0.812-  29 1.54  57 1.54 409 1.54 442 1.54
 413  0.938  0.062  0.938-   1 1.54  29 1.54 385 1.54 410 1.54
 414  0.812  0.188  0.938- 385 1.54 411 1.54 415 1.54 442 1.54
 415  0.750  0.250  0.000- 262 1.54 319 1.54 414 1.54 416 1.54
 416  0.812  0.312  0.062- 415 1.54 417 1.54 418 1.54 419 1.54
 417  0.875  0.375  0.000- 416 1.54 420 1.54 445 1.54 446 1.54
 418  0.875  0.250  0.125- 388 1.54 390 1.54 416 1.54 421 1.54
 419  0.750  0.375  0.125- 294 1.54 295 1.54 416 1.54 422 1.54
 420  0.938  0.438  0.062-  37 1.54  65 1.54 417 1.54 450 1.54
 421  0.938  0.312  0.188-  37 1.54  41 1.54 418 1.54 425 1.54
 422  0.812  0.438  0.188- 419 1.54 425 1.54 450 1.54 455 1.54
 423  0.750  0.250  0.250- 270 1.54 295 1.54 390 1.54 424 1.54
 424  0.812  0.312  0.312- 423 1.54 425 1.54 426 1.54 427 1.54
 425  0.875  0.375  0.250- 421 1.54 422 1.54 424 1.54 428 1.54
 426  0.875  0.250  0.375- 396 1.54 398 1.54 424 1.54 429 1.54
 427  0.750  0.375  0.375- 302 1.54 303 1.54 424 1.54 430 1.54
 428  0.938  0.438  0.312-  45 1.54  73 1.54 425 1.54 458 1.54
 429  0.938  0.312  0.438-  45 1.54  49 1.54 426 1.54 433 1.54
 430  0.812  0.438  0.438- 427 1.54 433 1.54 458 1.54 463 1.54
 431  0.750  0.250  0.500- 278 1.54 303 1.54 398 1.54 432 1.54
 432  0.812  0.312  0.562- 431 1.54 433 1.54 434 1.54 435 1.54
 433  0.875  0.375  0.500- 429 1.54 430 1.54 432 1.54 436 1.54
 434  0.875  0.250  0.625- 404 1.54 406 1.54 432 1.54 437 1.54
 435  0.750  0.375  0.625- 310 1.54 311 1.54 432 1.54 438 1.54
 436  0.938  0.438  0.562-  53 1.54  81 1.54 433 1.54 466 1.54
 437  0.938  0.312  0.688-  53 1.54  57 1.54 434 1.54 441 1.54
 438  0.812  0.438  0.688- 435 1.54 441 1.54 466 1.54 471 1.54
 439  0.750  0.250  0.750- 286 1.54 311 1.54 406 1.54 440 1.54
 440  0.812  0.312  0.812- 439 1.54 441 1.54 442 1.54 443 1.54
 441  0.875  0.375  0.750- 437 1.54 438 1.54 440 1.54 444 1.54
 442  0.875  0.250  0.875- 412 1.54 414 1.54 440 1.54 445 1.54
 443  0.750  0.375  0.875- 318 1.54 319 1.54 440 1.54 446 1.54
 444  0.938  0.438  0.812-  61 1.54  89 1.54 441 1.54 474 1.54
 445  0.938  0.312  0.938-  33 1.54  61 1.54 417 1.54 442 1.54
 446  0.812  0.438  0.938- 417 1.54 443 1.54 447 1.54 474 1.54
 447  0.750  0.500  0.000- 294 1.54 349 1.54 446 1.54 448 1.54
 448  0.812  0.562  0.062- 447 1.54 449 1.54 450 1.54 451 1.54
 449  0.875  0.625  0.000- 448 1.54 452 1.54 477 1.54 478 1.54
 450  0.875  0.500  0.125- 420 1.54 422 1.54 448 1.54 453 1.54
 451  0.750  0.625  0.125- 326 1.54 327 1.54 448 1.54 454 1.54
 452  0.938  0.688  0.062-  69 1.54  97 1.54 449 1.54 482 1.54
 453  0.938  0.562  0.188-  69 1.54  73 1.54 450 1.54 457 1.54
 454  0.812  0.688  0.188- 451 1.54 457 1.54 482 1.54 487 1.54
 455  0.750  0.500  0.250- 302 1.54 327 1.54 422 1.54 456 1.54
 456  0.812  0.562  0.312- 455 1.54 457 1.54 458 1.54 459 1.54
 457  0.875  0.625  0.250- 453 1.54 454 1.54 456 1.54 460 1.54
 458  0.875  0.500  0.375- 428 1.54 430 1.54 456 1.54 461 1.54
 459  0.750  0.625  0.375- 334 1.54 335 1.54 456 1.54 462 1.54
 460  0.938  0.688  0.312-  77 1.54 105 1.54 457 1.54 490 1.54
 461  0.938  0.562  0.438-  77 1.54  81 1.54 458 1.54 465 1.54
 462  0.812  0.688  0.438- 459 1.54 465 1.54 490 1.54 495 1.54
 463  0.750  0.500  0.500- 310 1.54 335 1.54 430 1.54 464 1.54
 464  0.812  0.562  0.562- 463 1.54 465 1.54 466 1.54 467 1.54
 465  0.875  0.625  0.500- 461 1.54 462 1.54 464 1.54 468 1.54
 466  0.875  0.500  0.625- 436 1.54 438 1.54 464 1.54 469 1.54
 467  0.750  0.625  0.625- 340 1.54 341 1.54 464 1.54 470 1.54
 468  0.938  0.688  0.562-  85 1.54 113 1.54 465 1.54 498 1.54
 469  0.938  0.562  0.688-  85 1.54  89 1.54 466 1.54 473 1.54
 470  0.812  0.688  0.688- 467 1.54 473 1.54 498 1.54 503 1.54
 471  0.750  0.500  0.750- 318 1.54 341 1.54 438 1.54 472 1.54
 472  0.812  0.562  0.812- 471 1.54 473 1.54 474 1.54 475 1.54
 473  0.875  0.625  0.750- 469 1.54 470 1.54 472 1.54 476 1.54
 474  0.875  0.500  0.875- 444 1.54 446 1.54 472 1.54 477 1.54
 475  0.750  0.625  0.875- 348 1.54 349 1.54 472 1.54 478 1.54
 476  0.938  0.688  0.812-  93 1.54 121 1.54 473 1.54 506 1.54
 477  0.938  0.562  0.938-  65 1.54  93 1.54 449 1.54 474 1.54
 478  0.812  0.688  0.938- 449 1.54 475 1.54 479 1.54 506 1.54
 479  0.750  0.750  0.000- 326 1.54 381 1.54 478 1.54 480 1.54
 480  0.812  0.812  0.062- 479 1.54 481 1.54 482 1.54 483 1.54
 481  0.875  0.875  0.000- 480 1.54 484 1.54 509 1.54 510 1.54
 482  0.875  0.750  0.125- 452 1.54 454 1.54 480 1.54 485 1.54
 483  0.750  0.875  0.125- 356 1.54 357 1.54 480 1.54 486 1.54
 484  0.938  0.938  0.062-   1 1.54 101 1.54 386 1.54 481 1.54
 485  0.938  0.812  0.188- 101 1.54 105 1.54 482 1.54 489 1.54
 486  0.812  0.938  0.188- 386 1.54 391 1.54 483 1.54 489 1.54
 487  0.750  0.750  0.250- 334 1.54 357 1.54 454 1.54 488 1.54
 488  0.812  0.812  0.312- 487 1.54 489 1.54 490 1.54 491 1.54
 489  0.875  0.875  0.250- 485 1.54 486 1.54 488 1.54 492 1.54
 490  0.875  0.750  0.375- 460 1.54 462 1.54 488 1.54 493 1.54
 491  0.750  0.875  0.375- 364 1.54 365 1.54 488 1.54 494 1.54
 492  0.938  0.938  0.312-   9 1.54 109 1.54 394 1.54 489 1.54
 493  0.938  0.812  0.438- 109 1.54 113 1.54 490 1.54 497 1.54
 494  0.812  0.938  0.438- 394 1.54 399 1.54 491 1.54 497 1.54
 495  0.750  0.750  0.500- 340 1.54 365 1.54 462 1.54 496 1.54
 496  0.812  0.812  0.562- 495 1.54 497 1.54 498 1.54 499 1.54
 497  0.875  0.875  0.500- 493 1.54 494 1.54 496 1.54 500 1.54
 498  0.875  0.750  0.625- 468 1.54 470 1.54 496 1.54 501 1.54
 499  0.750  0.875  0.625- 372 1.54 373 1.54 496 1.54 502 1.54
 500  0.938  0.938  0.562-  17 1.54 117 1.54 402 1.54 497 1.54
 501  0.938  0.812  0.688- 117 1.54 121 1.54 498 1.54 505 1.54
 502  0.812  0.938  0.688- 402 1.54 407 1.54 499 1.54 505 1.54
 503  0.750  0.750  0.750- 348 1.54 373 1.54 470 1.54 504 1.54
 504  0.812  0.812  0.812- 503 1.54 505 1.54 506 1.54 507 1.54
 505  0.875  0.875  0.750- 501 1.54 502 1.54 504 1.54 508 1.54
 506  0.875  0.750  0.875- 476 1.54 478 1.54 504 1.54 509 1.54
 507  0.750  0.875  0.875- 380 1.54 381 1.54 504 1.54 510 1.54
 508  0.938  0.938  0.812-  25 1.54 125 1.54 410 1.54 505 1.54
 509  0.938  0.812  0.938-  97 1.54 125 1.54 481 1.54 506 1.54
 510  0.812  0.938  0.938- 383 1.54 410 1.54 481 1.54 507 1.54
 511  0.500  0.500  0.500- 182 1.54 207 1.54 304 1.54
 
  LATTYP: Found a simple cubic cell.
 ALAT       =    14.2680000000
  
  Lattice vectors:
  
 A1 = (  14.2680000000,   0.0000000000,   0.0000000000)
 A2 = (   0.0000000000,  14.2680000000,   0.0000000000)
 A3 = (   0.0000000000,   0.0000000000,  14.2680000000)


Analysis of symmetry for initial positions (statically):
=====================================================================
 Subroutine PRICEL returns:
 Original cell was already a primitive cell.
 

 Routine SETGRP: Setting up the symmetry group for a 
 simple cubic supercell.


 Subroutine GETGRP returns: Found  6 space group operations
 (whereof  6 operations were pure point group operations)
 out of a pool of 48 trial point group operations.


The static configuration has the point symmetry C_3v.


Analysis of symmetry for dynamics (positions and initial velocities):
=====================================================================
 Subroutine PRICEL returns:
 Original cell was already a primitive cell.
 

 Routine SETGRP: Setting up the symmetry group for a 
 simple cubic supercell.


 Subroutine GETGRP returns: Found  6 space group operations
 (whereof  6 operations were pure point group operations)
 out of a pool of 48 trial point group operations.


The dynamic configuration has the point symmetry C_3v.


Analysis of magnetic symmetry:
=====================================================================
 Subroutine PRICEL returns:
 Original cell was already a primitive cell.
 

 Subroutine MAGSYM returns: Found  6 space group operations
 (whereof  6 operations were pure point group operations)
 out of a pool of  6 trial space group operations
 (whereof  6 operations were pure point group operations)
 and found also     1 'primitive' translations


The magnetic configuration has the point symmetry C_3v.
 
 
 KPOINTS: Automatically generated mesh            

Automatic generation of k-mesh.
Space group operators:
 irot       det(A)        alpha          n_x          n_y          n_z        tau_x        tau_y        tau_z
    1     1.000000     0.000000     1.000000     0.000000     0.000000     0.000000     0.000000     0.000000
    2     1.000000   120.000000    -0.577350    -0.577350    -0.577350     0.000000     0.000000     0.000000
    3     1.000000   120.000000     0.577350     0.577350     0.577350     0.000000     0.000000     0.000000
    4    -1.000000   180.000000     0.000000    -0.707107     0.707107     0.000000     0.000000     0.000000
    5    -1.000000   180.000000     0.707107    -0.707107     0.000000     0.000000     0.000000     0.000000
    6    -1.000000   180.000000     0.707107     0.000000    -0.707107     0.000000     0.000000     0.000000
 
 Subroutine IBZKPT returns following result:
 ===========================================
 
 Found      1 irreducible k-points:
 
 Following reciprocal coordinates:
            Coordinates               Weight
  0.000000  0.000000  0.000000      1.000000
 
 Following cartesian coordinates:
            Coordinates               Weight
  0.000000  0.000000  0.000000      1.000000
 
 
 Subroutine IBZKPT_HF returns following result:
 ==============================================
 
 Found      1 k-points in 1st BZ
 the following      1 k-points will be used (e.g. in the exchange kernel)
 Following reciprocal coordinates:   # in IRBZ
  0.000000  0.000000  0.000000    1.00000000   1 t-inv F


--------------------------------------------------------------------------------------------------------




 Dimension of arrays:
   k-points           NKPTS =      1   k-points in BZ     NKDIM =      1   number of bands    NBANDS=   1056
   number of dos      NEDOS =    301   number of ions     NIONS =    511
   non local maximal  LDIM  =      8   non local SUM 2l+1 LMDIM =     22
   total plane-waves  NPLWV = 343000
   max r-space proj   IRMAX =      1   max aug-charges    IRDMAX=   1409
   dimension x,y,z NGX =    70 NGY =   70 NGZ =   70
   dimension x,y,z NGXF=   140 NGYF=  140 NGZF=  140
   support grid    NGXF=   140 NGYF=  140 NGZF=  140
   ions per type =             510   1
 NGX,Y,Z   is equivalent  to a cutoff of   8.16,  8.16,  8.16 a.u.
 NGXF,Y,Z  is equivalent  to a cutoff of  16.31, 16.31, 16.31 a.u.


 I would recommend the setting:
   dimension x,y,z NGX =    70 NGY =   70 NGZ =   70
 SYSTEM =  unknown system                          
 POSCAR =  Cubic diamond                           

 Startparameter for this run:
   NWRITE =      2    write-flag & timer
   PREC   = normal    normal or accurate (medium, high low for compatibility)
   ISTART =      0    job   : 0-new  1-cont  2-samecut
   ICHARG =      2    charge: 1-file 2-atom 10-const
   ISPIN  =      2    spin polarized calculation?
   LNONCOLLINEAR =      F non collinear calculations
   LSORBIT =      F    spin-orbit coupling
   INIWAV =      1    electr: 0-lowe 1-rand  2-diag
   LASPH  =      F    aspherical Exc in radial PAW
   METAGGA=      F    non-selfconsistent MetaGGA calc.

 Electronic Relaxation 1
   ENCUT  =  400.0 eV  29.40 Ry    5.42 a.u.  23.27 23.27 23.27*2*pi/ulx,y,z
   ENINI  =  400.0     initial cutoff
   ENAUG  = 1213.9 eV  augmentation charge cutoff
   NELM   =     60;   NELMIN=  2; NELMDL= -5     # of ELM steps 
   EDIFF  = 0.1E-03   stopping-criterion for ELM
   LREAL  =      F    real-space projection
   NLSPLINE    = F    spline interpolate recip. space projectors
   LCOMPAT=      F    compatible to vasp.4.4
   GGA_COMPAT  = T    GGA compatible to vasp.4.4-vasp.4.6
   LMAXPAW     = -100 max onsite density
   LMAXMIX     =    2 max onsite mixed and CHGCAR
   VOSKOWN=      0    Vosko Wilk Nusair interpolation
   ROPT   =    0.00000   0.00000
 Ionic relaxation
   EDIFFG = 0.1E-02   stopping-criterion for IOM
   NSW    =    100    number of steps for IOM
   NBLOCK =      1;   KBLOCK =    100    inner block; outer block 
   IBRION =      2    ionic relax: 0-MD 1-quasi-New 2-CG
   NFREE  =      1    steps in history (QN), initial steepest desc. (CG)
   ISIF   =      0    stress and relaxation
   IWAVPR =     11    prediction:  0-non 1-charg 2-wave 3-comb
   ISYM   =      3    0-nonsym 1-usesym 2-fastsym
   LCORR  =      T    Harris-Foulkes like correction to forces

   POTIM  = 0.5000    time-step for ionic-motion
   TEIN   =    0.0    initial temperature
   TEBEG  =    0.0;   TEEND  =   0.0 temperature during run
   SMASS  =  -3.00    Nose mass-parameter (am)
   estimated Nose-frequenzy (Omega)   =  0.10E-29 period in steps =****** mass=  -0.465E-26a.u.
   SCALEE = 1.0000    scale energy and forces
   NPACO  =    256;   APACO  = 16.0  distance and # of slots for P.C.
   PSTRESS=    0.0 pullay stress

  Mass of Ions in am
   POMASS =  12.01 14.00
  Ionic Valenz
   ZVAL   =   4.00  5.00
  Atomic Wigner-Seitz radii
   RWIGS  =  -1.00 -1.00
  virtual crystal weights 
   VCA    =   1.00  1.00
   NELECT =    2046.0000    total number of electrons
   NUPDOWN=      -1.0000    fix difference up-down

 DOS related values:
   EMIN   =  10.00;   EMAX   =-10.00  energy-range for DOS
   EFERMI =   0.00
   ISMEAR =     1;   SIGMA  =   0.00  broadening in eV -4-tet -1-fermi 0-gaus

 Electronic relaxation 2 (details)
   IALGO  =     38    algorithm
   LDIAG  =      T    sub-space diagonalisation (order eigenvalues)
   LSUBROT=      F    optimize rotation matrix (better conditioning)
   TURBO    =      0    0=normal 1=particle mesh
   IRESTART =      0    0=no restart 2=restart with 2 vectors
   NREBOOT  =      0    no. of reboots
   NMIN     =      0    reboot dimension
   EREF     =   0.00    reference energy to select bands
   IMIX   =      1    mixing-type and parameters
     AMIX     =   0.40;   BMIX     =  1.00
     AMIX_MAG =   1.60;   BMIX_MAG =  1.00
     AMIN     =   0.10
     WC   =   100.;   INIMIX=   1;  MIXPRE=   1;  MAXMIX= -45

 Intra band minimization:
   WEIMIN = 0.0010     energy-eigenvalue tresh-hold
   EBREAK =  0.24E-07  absolut break condition
   DEPER  =   0.30     relativ break condition  

   TIME   =   0.40     timestep for ELM

  volume/ion in A,a.u.               =       5.68        38.36
  Fermi-wavevector in a.u.,A,eV,Ry     =   1.456622  2.752617 28.868139  2.121748
  Thomas-Fermi vector in A             =   2.573519
 
 Write flags
   LWAVE  =      T    write WAVECAR
   LCHARG =      T    write CHGCAR
   LVTOT  =      F    write LOCPOT, total local potential
   LVHAR  =      F    write LOCPOT, Hartree potential only
   LELF   =      F    write electronic localiz. function (ELF)
   LORBIT =      0    0 simple, 1 ext, 2 COOP (PROOUT)


 Dipole corrections
   LMONO  =      F    monopole corrections only (constant potential shift)
   LDIPOL =      F    correct potential (dipole corrections)
   IDIPOL =      0    1-x, 2-y, 3-z, 4-all directions 
   EPSILON=  1.0000000 bulk dielectric constant

 Exchange correlation treatment:
   GGA     =    --    GGA type
   LEXCH   =     8    internal setting for exchange type
   VOSKOWN=      0    Vosko Wilk Nusair interpolation
   EXXOEP  =     0    0=HF, 1=EXX-LHF (local Hartree Fock) 2=EXX OEP
   LHFCALC =     T    Hartree Fock is set to
   LSYMGRAD=     F    symmetrize gradient (conserves proper symmetry)
   PRECFOCK=normal    Normal, Fast or Accurate (Low or Medium for compatibility)
   LRHFCALC=     F    long range Hartree Fock
   LRSCOR  =     F    long range correlation only (use DFT for short range part)
   LTHOMAS =     F    Thomas Fermi screening in HF
   LMODELHF=     F    short range full HF, long range fraction AEXX
   ENCUT4O =  -1.0   cutoff for four orbital integrals eV
   LMAXFOCK=     4    L truncation for augmentation on plane wave grid
   LMAXFOCKAE=  -1    L truncation for all-electron charge restoration on plane wave grid
   NMAXFOCKAE=   1    number of basis functions for all-electron charge restoration
   LFOCKAEDFT=     F  apply the AE augmentation even for DFT
   NKREDX  =     1    reduce k-point grid by
   NKREDY  =     1    reduce k-point grid by
   NKREDZ  =     1    reduce k-point grid by
   SHIFTRED=     F    shift reduced grid of Gamma
   HFKIDENT=     F    idential grid for each k-point
   ODDONLY =     F    use only odd q-grid points
   EVENONLY=     F    use only even q-grid points
   HFALPHA =   -1.0000 decay constant for conv. correction
   MCALPHA =    0.0000 extent of test-charge in conv. correction in multipole expansion
   AEXX    =    0.0000 exact exchange contribution
   HFSCREEN=    0.0000 screening length (either q_TF or 0.3 A-1)
   HFSCREENC=   0.0000 screening length for correlation (either q_TF or 0.3 A-1)
   HFRCUT  =    0.0000 spherical cutoff for potential kernel
   ALDAX   =    1.0000 LDA exchange part
   AGGAX   =    1.0000 GGA exchange part
   ALDAC   =    1.0000 LDA correlation
   AGGAC   =    1.0000 GGA correlation
   NBANDSGWLOW=     1    first orbital included in HF term
   ENCUTFOCK=  -1.0 apply spherical cutoff to Coloumb kernel
 Linear response parameters
   LEPSILON=     F    determine dielectric tensor
   LRPA    =     F    only Hartree local field effects (RPA)
   LNABLA  =     F    use nabla operator in PAW spheres
   LVEL    =     F    velocity operator in full k-point grid
   LINTERFAST=   F  fast interpolation
   KINTER  =     0    interpolate to denser k-point grid
   CSHIFT  =0.1000    complex shift for real part using Kramers Kronig
   OMEGAMAX=  -1.0    maximum frequency
   DEG_THRESHOLD= 0.2000000E-02 threshold for treating states as degnerate
   RTIME   =    0.100 relaxation time in fs

 Orbital magnetization related:
   ORBITALMAG=     F  switch on orbital magnetization
   LCHIMAG   =     F  perturbation theory with respect to B field
   DQ        =  0.001000  dq finite difference perturbation B field



--------------------------------------------------------------------------------------------------------


 conjugate gradient relaxation of ions
 charge density and potential will be updated during run
 spin polarized calculation
 Variant of blocked Davidson
 Davidson routine will perform the subspace rotation
 perform sub-space diagonalisation
    after iterative eigenvector-optimisation
 Kerker-like  mixing scheme
 using additional bands           33
 reciprocal scheme for non local part
 use partial core corrections
 calculate Harris-corrections to forces 
   (improved forces if not selfconsistent)
 use gradient corrections 
 use of overlap-Matrix (Vanderbilt PP)
 Methfessel and Paxton  Order N= 1 SIGMA  =   0.00


--------------------------------------------------------------------------------------------------------


  energy-cutoff  :      400.00
  volume of cell :     2904.62
      direct lattice vectors                 reciprocal lattice vectors
    14.268000000  0.000000000  0.000000000     0.070086908  0.000000000  0.000000000
     0.000000000 14.268000000  0.000000000     0.000000000  0.070086908  0.000000000
     0.000000000  0.000000000 14.268000000     0.000000000  0.000000000  0.070086908

  length of vectors
    14.268000000 14.268000000 14.268000000     0.070086908  0.070086908  0.070086908


 
 k-points in units of 2pi/SCALE and weight: Automatically generated mesh            
   0.00000000  0.00000000  0.00000000       1.000
 
 k-points in reciprocal lattice and weights: Automatically generated mesh            
   0.00000000  0.00000000  0.00000000       1.000
 
 position of ions in fractional coordinates (direct lattice) 
   0.00000000  0.00000000  0.00000000
   0.06250000  0.06250000  0.06250000
   0.12500000  0.12500000  0.00000000
   0.12500000  0.00000000  0.12500000
   0.00000000  0.12500000  0.12500000
   0.18750000  0.18750000  0.06250000
   0.18750000  0.06250000  0.18750000
   0.06250000  0.18750000  0.18750000
   0.00000000  0.00000000  0.25000000
   0.06250000  0.06250000  0.31250000
   0.12500000  0.12500000  0.25000000
   0.12500000  0.00000000  0.37500000
   0.00000000  0.12500000  0.37500000
   0.18750000  0.18750000  0.31250000
   0.18750000  0.06250000  0.43750000
   0.06250000  0.18750000  0.43750000
   0.00000000  0.00000000  0.50000000
   0.06250000  0.06250000  0.56250000
   0.12500000  0.12500000  0.50000000
   0.12500000  0.00000000  0.62500000
   0.00000000  0.12500000  0.62500000
   0.18750000  0.18750000  0.56250000
   0.18750000  0.06250000  0.68750000
   0.06250000  0.18750000  0.68750000
   0.00000000  0.00000000  0.75000000
   0.06250000  0.06250000  0.81250000
   0.12500000  0.12500000  0.75000000
   0.12500000  0.00000000  0.87500000
   0.00000000  0.12500000  0.87500000
   0.18750000  0.18750000  0.81250000
   0.18750000  0.06250000  0.93750000
   0.06250000  0.18750000  0.93750000
   0.00000000  0.25000000  0.00000000
   0.06250000  0.31250000  0.06250000
   0.12500000  0.37500000  0.00000000
   0.12500000  0.25000000  0.12500000
   0.00000000  0.37500000  0.12500000
   0.18750000  0.43750000  0.06250000
   0.18750000  0.31250000  0.18750000
   0.06250000  0.43750000  0.18750000
   0.00000000  0.25000000  0.25000000
   0.06250000  0.31250000  0.31250000
   0.12500000  0.37500000  0.25000000
   0.12500000  0.25000000  0.37500000
   0.00000000  0.37500000  0.37500000
   0.18750000  0.43750000  0.31250000
   0.18750000  0.31250000  0.43750000
   0.06250000  0.43750000  0.43750000
   0.00000000  0.25000000  0.50000000
   0.06250000  0.31250000  0.56250000
   0.12500000  0.37500000  0.50000000
   0.12500000  0.25000000  0.62500000
   0.00000000  0.37500000  0.62500000
   0.18750000  0.43750000  0.56250000
   0.18750000  0.31250000  0.68750000
   0.06250000  0.43750000  0.68750000
   0.00000000  0.25000000  0.75000000
   0.06250000  0.31250000  0.81250000
   0.12500000  0.37500000  0.75000000
   0.12500000  0.25000000  0.87500000
   0.00000000  0.37500000  0.87500000
   0.18750000  0.43750000  0.81250000
   0.18750000  0.31250000  0.93750000
   0.06250000  0.43750000  0.93750000
   0.00000000  0.50000000  0.00000000
   0.06250000  0.56250000  0.06250000
   0.12500000  0.62500000  0.00000000
   0.12500000  0.50000000  0.12500000
   0.00000000  0.62500000  0.12500000
   0.18750000  0.68750000  0.06250000
   0.18750000  0.56250000  0.18750000
   0.06250000  0.68750000  0.18750000
   0.00000000  0.50000000  0.25000000
   0.06250000  0.56250000  0.31250000
   0.12500000  0.62500000  0.25000000
   0.12500000  0.50000000  0.37500000
   0.00000000  0.62500000  0.37500000
   0.18750000  0.68750000  0.31250000
   0.18750000  0.56250000  0.43750000
   0.06250000  0.68750000  0.43750000
   0.00000000  0.50000000  0.50000000
   0.06250000  0.56250000  0.56250000
   0.12500000  0.62500000  0.50000000
   0.12500000  0.50000000  0.62500000
   0.00000000  0.62500000  0.62500000
   0.18750000  0.68750000  0.56250000
   0.18750000  0.56250000  0.68750000
   0.06250000  0.68750000  0.68750000
   0.00000000  0.50000000  0.75000000
   0.06250000  0.56250000  0.81250000
   0.12500000  0.62500000  0.75000000
   0.12500000  0.50000000  0.87500000
   0.00000000  0.62500000  0.87500000
   0.18750000  0.68750000  0.81250000
   0.18750000  0.56250000  0.93750000
   0.06250000  0.68750000  0.93750000
   0.00000000  0.75000000  0.00000000
   0.06250000  0.81250000  0.06250000
   0.12500000  0.87500000  0.00000000
   0.12500000  0.75000000  0.12500000
   0.00000000  0.87500000  0.12500000
   0.18750000  0.93750000  0.06250000
   0.18750000  0.81250000  0.18750000
   0.06250000  0.93750000  0.18750000
   0.00000000  0.75000000  0.25000000
   0.06250000  0.81250000  0.31250000
   0.12500000  0.87500000  0.25000000
   0.12500000  0.75000000  0.37500000
   0.00000000  0.87500000  0.37500000
   0.18750000  0.93750000  0.31250000
   0.18750000  0.81250000  0.43750000
   0.06250000  0.93750000  0.43750000
   0.00000000  0.75000000  0.50000000
   0.06250000  0.81250000  0.56250000
   0.12500000  0.87500000  0.50000000
   0.12500000  0.75000000  0.62500000
   0.00000000  0.87500000  0.62500000
   0.18750000  0.93750000  0.56250000
   0.18750000  0.81250000  0.68750000
   0.06250000  0.93750000  0.68750000
   0.00000000  0.75000000  0.75000000
   0.06250000  0.81250000  0.81250000
   0.12500000  0.87500000  0.75000000
   0.12500000  0.75000000  0.87500000
   0.00000000  0.87500000  0.87500000
   0.18750000  0.93750000  0.81250000
   0.18750000  0.81250000  0.93750000
   0.06250000  0.93750000  0.93750000
   0.25000000  0.00000000  0.00000000
   0.31250000  0.06250000  0.06250000
   0.37500000  0.12500000  0.00000000
   0.37500000  0.00000000  0.12500000
   0.25000000  0.12500000  0.12500000
   0.43750000  0.18750000  0.06250000
   0.43750000  0.06250000  0.18750000
   0.31250000  0.18750000  0.18750000
   0.25000000  0.00000000  0.25000000
   0.31250000  0.06250000  0.31250000
   0.37500000  0.12500000  0.25000000
   0.37500000  0.00000000  0.37500000
   0.25000000  0.12500000  0.37500000
   0.43750000  0.18750000  0.31250000
   0.43750000  0.06250000  0.43750000
   0.31250000  0.18750000  0.43750000
   0.25000000  0.00000000  0.50000000
   0.31250000  0.06250000  0.56250000
   0.37500000  0.12500000  0.50000000
   0.37500000  0.00000000  0.62500000
   0.25000000  0.12500000  0.62500000
   0.43750000  0.18750000  0.56250000
   0.43750000  0.06250000  0.68750000
   0.31250000  0.18750000  0.68750000
   0.25000000  0.00000000  0.75000000
   0.31250000  0.06250000  0.81250000
   0.37500000  0.12500000  0.75000000
   0.37500000  0.00000000  0.87500000
   0.25000000  0.12500000  0.87500000
   0.43750000  0.18750000  0.81250000
   0.43750000  0.06250000  0.93750000
   0.31250000  0.18750000  0.93750000
   0.25000000  0.25000000  0.00000000
   0.31250000  0.31250000  0.06250000
   0.37500000  0.37500000  0.00000000
   0.37500000  0.25000000  0.12500000
   0.25000000  0.37500000  0.12500000
   0.43750000  0.43750000  0.06250000
   0.43750000  0.31250000  0.18750000
   0.31250000  0.43750000  0.18750000
   0.25000000  0.25000000  0.25000000
   0.31250000  0.31250000  0.31250000
   0.37500000  0.37500000  0.25000000
   0.37500000  0.25000000  0.37500000
   0.25000000  0.37500000  0.37500000
   0.43750000  0.43750000  0.31250000
   0.43750000  0.31250000  0.43750000
   0.31250000  0.43750000  0.43750000
   0.25000000  0.25000000  0.50000000
   0.31250000  0.31250000  0.56250000
   0.37500000  0.37500000  0.50000000
   0.37500000  0.25000000  0.62500000
   0.25000000  0.37500000  0.62500000
   0.43750000  0.43750000  0.56250000
   0.43750000  0.31250000  0.68750000
   0.31250000  0.43750000  0.68750000
   0.25000000  0.25000000  0.75000000
   0.31250000  0.31250000  0.81250000
   0.37500000  0.37500000  0.75000000
   0.37500000  0.25000000  0.87500000
   0.25000000  0.37500000  0.87500000
   0.43750000  0.43750000  0.81250000
   0.43750000  0.31250000  0.93750000
   0.31250000  0.43750000  0.93750000
   0.25000000  0.50000000  0.00000000
   0.31250000  0.56250000  0.06250000
   0.37500000  0.62500000  0.00000000
   0.37500000  0.50000000  0.12500000
   0.25000000  0.62500000  0.12500000
   0.43750000  0.68750000  0.06250000
   0.43750000  0.56250000  0.18750000
   0.31250000  0.68750000  0.18750000
   0.25000000  0.50000000  0.25000000
   0.31250000  0.56250000  0.31250000
   0.37500000  0.62500000  0.25000000
   0.37500000  0.50000000  0.37500000
   0.25000000  0.62500000  0.37500000
   0.43750000  0.68750000  0.31250000
   0.43750000  0.56250000  0.43750000
   0.31250000  0.68750000  0.43750000
   0.25000000  0.50000000  0.50000000
   0.31250000  0.56250000  0.56250000
   0.37500000  0.62500000  0.50000000
   0.37500000  0.50000000  0.62500000
   0.25000000  0.62500000  0.62500000
   0.43750000  0.68750000  0.56250000
   0.43750000  0.56250000  0.68750000
   0.31250000  0.68750000  0.68750000
   0.25000000  0.50000000  0.75000000
   0.31250000  0.56250000  0.81250000
   0.37500000  0.62500000  0.75000000
   0.37500000  0.50000000  0.87500000
   0.25000000  0.62500000  0.87500000
   0.43750000  0.68750000  0.81250000
   0.43750000  0.56250000  0.93750000
   0.31250000  0.68750000  0.93750000
   0.25000000  0.75000000  0.00000000
   0.31250000  0.81250000  0.06250000
   0.37500000  0.87500000  0.00000000
   0.37500000  0.75000000  0.12500000
   0.25000000  0.87500000  0.12500000
   0.43750000  0.93750000  0.06250000
   0.43750000  0.81250000  0.18750000
   0.31250000  0.93750000  0.18750000
   0.25000000  0.75000000  0.25000000
   0.31250000  0.81250000  0.31250000
   0.37500000  0.87500000  0.25000000
   0.37500000  0.75000000  0.37500000
   0.25000000  0.87500000  0.37500000
   0.43750000  0.93750000  0.31250000
   0.43750000  0.81250000  0.43750000
   0.31250000  0.93750000  0.43750000
   0.25000000  0.75000000  0.50000000
   0.31250000  0.81250000  0.56250000
   0.37500000  0.87500000  0.50000000
   0.37500000  0.75000000  0.62500000
   0.25000000  0.87500000  0.62500000
   0.43750000  0.93750000  0.56250000
   0.43750000  0.81250000  0.68750000
   0.31250000  0.93750000  0.68750000
   0.25000000  0.75000000  0.75000000
   0.31250000  0.81250000  0.81250000
   0.37500000  0.87500000  0.75000000
   0.37500000  0.75000000  0.87500000
   0.25000000  0.87500000  0.87500000
   0.43750000  0.93750000  0.81250000
   0.43750000  0.81250000  0.93750000
   0.31250000  0.93750000  0.93750000
   0.50000000  0.00000000  0.00000000
   0.56250000  0.06250000  0.06250000
   0.62500000  0.12500000  0.00000000
   0.62500000  0.00000000  0.12500000
   0.50000000  0.12500000  0.12500000
   0.68750000  0.18750000  0.06250000
   0.68750000  0.06250000  0.18750000
   0.56250000  0.18750000  0.18750000
   0.50000000  0.00000000  0.25000000
   0.56250000  0.06250000  0.31250000
   0.62500000  0.12500000  0.25000000
   0.62500000  0.00000000  0.37500000
   0.50000000  0.12500000  0.37500000
   0.68750000  0.18750000  0.31250000
   0.68750000  0.06250000  0.43750000
   0.56250000  0.18750000  0.43750000
   0.50000000  0.00000000  0.50000000
   0.56250000  0.06250000  0.56250000
   0.62500000  0.12500000  0.50000000
   0.62500000  0.00000000  0.62500000
   0.50000000  0.12500000  0.62500000
   0.68750000  0.18750000  0.56250000
   0.68750000  0.06250000  0.68750000
   0.56250000  0.18750000  0.68750000
   0.50000000  0.00000000  0.75000000
   0.56250000  0.06250000  0.81250000
   0.62500000  0.12500000  0.75000000
   0.62500000  0.00000000  0.87500000
   0.50000000  0.12500000  0.87500000
   0.68750000  0.18750000  0.81250000
   0.68750000  0.06250000  0.93750000
   0.56250000  0.18750000  0.93750000
   0.50000000  0.25000000  0.00000000
   0.56250000  0.31250000  0.06250000
   0.62500000  0.37500000  0.00000000
   0.62500000  0.25000000  0.12500000
   0.50000000  0.37500000  0.12500000
   0.68750000  0.43750000  0.06250000
   0.68750000  0.31250000  0.18750000
   0.56250000  0.43750000  0.18750000
   0.50000000  0.25000000  0.25000000
   0.56250000  0.31250000  0.31250000
   0.62500000  0.37500000  0.25000000
   0.62500000  0.25000000  0.37500000
   0.50000000  0.37500000  0.37500000
   0.68750000  0.43750000  0.31250000
   0.68750000  0.31250000  0.43750000
   0.56250000  0.43750000  0.43750000
   0.50000000  0.25000000  0.50000000
   0.56250000  0.31250000  0.56250000
   0.62500000  0.37500000  0.50000000
   0.62500000  0.25000000  0.62500000
   0.50000000  0.37500000  0.62500000
   0.68750000  0.43750000  0.56250000
   0.68750000  0.31250000  0.68750000
   0.56250000  0.43750000  0.68750000
   0.50000000  0.25000000  0.75000000
   0.56250000  0.31250000  0.81250000
   0.62500000  0.37500000  0.75000000
   0.62500000  0.25000000  0.87500000
   0.50000000  0.37500000  0.87500000
   0.68750000  0.43750000  0.81250000
   0.68750000  0.31250000  0.93750000
   0.56250000  0.43750000  0.93750000
   0.50000000  0.50000000  0.00000000
   0.56250000  0.56250000  0.06250000
   0.62500000  0.62500000  0.00000000
   0.62500000  0.50000000  0.12500000
   0.50000000  0.62500000  0.12500000
   0.68750000  0.68750000  0.06250000
   0.68750000  0.56250000  0.18750000
   0.56250000  0.68750000  0.18750000
   0.50000000  0.50000000  0.25000000
   0.56250000  0.56250000  0.31250000
   0.62500000  0.62500000  0.25000000
   0.62500000  0.50000000  0.37500000
   0.50000000  0.62500000  0.37500000
   0.68750000  0.68750000  0.31250000
   0.68750000  0.56250000  0.43750000
   0.56250000  0.68750000  0.43750000
   0.62500000  0.62500000  0.50000000
   0.62500000  0.50000000  0.62500000
   0.50000000  0.62500000  0.62500000
   0.68750000  0.68750000  0.56250000
   0.68750000  0.56250000  0.68750000
   0.56250000  0.68750000  0.68750000
   0.50000000  0.50000000  0.75000000
   0.56250000  0.56250000  0.81250000
   0.62500000  0.62500000  0.75000000
   0.62500000  0.50000000  0.87500000
   0.50000000  0.62500000  0.87500000
   0.68750000  0.68750000  0.81250000
   0.68750000  0.56250000  0.93750000
   0.56250000  0.68750000  0.93750000
   0.50000000  0.75000000  0.00000000
   0.56250000  0.81250000  0.06250000
   0.62500000  0.87500000  0.00000000
   0.62500000  0.75000000  0.12500000
   0.50000000  0.87500000  0.12500000
   0.68750000  0.93750000  0.06250000
   0.68750000  0.81250000  0.18750000
   0.56250000  0.93750000  0.18750000
   0.50000000  0.75000000  0.25000000
   0.56250000  0.81250000  0.31250000
   0.62500000  0.87500000  0.25000000
   0.62500000  0.75000000  0.37500000
   0.50000000  0.87500000  0.37500000
   0.68750000  0.93750000  0.31250000
   0.68750000  0.81250000  0.43750000
   0.56250000  0.93750000  0.43750000
   0.50000000  0.75000000  0.50000000
   0.56250000  0.81250000  0.56250000
   0.62500000  0.87500000  0.50000000
   0.62500000  0.75000000  0.62500000
   0.50000000  0.87500000  0.62500000
   0.68750000  0.93750000  0.56250000
   0.68750000  0.81250000  0.68750000
   0.56250000  0.93750000  0.68750000
   0.50000000  0.75000000  0.75000000
   0.56250000  0.81250000  0.81250000
   0.62500000  0.87500000  0.75000000
   0.62500000  0.75000000  0.87500000
   0.50000000  0.87500000  0.87500000
   0.68750000  0.93750000  0.81250000
   0.68750000  0.81250000  0.93750000
   0.56250000  0.93750000  0.93750000
   0.75000000  0.00000000  0.00000000
   0.81250000  0.06250000  0.06250000
   0.87500000  0.12500000  0.00000000
   0.87500000  0.00000000  0.12500000
   0.75000000  0.12500000  0.12500000
   0.93750000  0.18750000  0.06250000
   0.93750000  0.06250000  0.18750000
   0.81250000  0.18750000  0.18750000
   0.75000000  0.00000000  0.25000000
   0.81250000  0.06250000  0.31250000
   0.87500000  0.12500000  0.25000000
   0.87500000  0.00000000  0.37500000
   0.75000000  0.12500000  0.37500000
   0.93750000  0.18750000  0.31250000
   0.93750000  0.06250000  0.43750000
   0.81250000  0.18750000  0.43750000
   0.75000000  0.00000000  0.50000000
   0.81250000  0.06250000  0.56250000
   0.87500000  0.12500000  0.50000000
   0.87500000  0.00000000  0.62500000
   0.75000000  0.12500000  0.62500000
   0.93750000  0.18750000  0.56250000
   0.93750000  0.06250000  0.68750000
   0.81250000  0.18750000  0.68750000
   0.75000000  0.00000000  0.75000000
   0.81250000  0.06250000  0.81250000
   0.87500000  0.12500000  0.75000000
   0.87500000  0.00000000  0.87500000
   0.75000000  0.12500000  0.87500000
   0.93750000  0.18750000  0.81250000
   0.93750000  0.06250000  0.93750000
   0.81250000  0.18750000  0.93750000
   0.75000000  0.25000000  0.00000000
   0.81250000  0.31250000  0.06250000
   0.87500000  0.37500000  0.00000000
   0.87500000  0.25000000  0.12500000
   0.75000000  0.37500000  0.12500000
   0.93750000  0.43750000  0.06250000
   0.93750000  0.31250000  0.18750000
   0.81250000  0.43750000  0.18750000
   0.75000000  0.25000000  0.25000000
   0.81250000  0.31250000  0.31250000
   0.87500000  0.37500000  0.25000000
   0.87500000  0.25000000  0.37500000
   0.75000000  0.37500000  0.37500000
   0.93750000  0.43750000  0.31250000
   0.93750000  0.31250000  0.43750000
   0.81250000  0.43750000  0.43750000
   0.75000000  0.25000000  0.50000000
   0.81250000  0.31250000  0.56250000
   0.87500000  0.37500000  0.50000000
   0.87500000  0.25000000  0.62500000
   0.75000000  0.37500000  0.62500000
   0.93750000  0.43750000  0.56250000
   0.93750000  0.31250000  0.68750000
   0.81250000  0.43750000  0.68750000
   0.75000000  0.25000000  0.75000000
   0.81250000  0.31250000  0.81250000
   0.87500000  0.37500000  0.75000000
   0.87500000  0.25000000  0.87500000
   0.75000000  0.37500000  0.87500000
   0.93750000  0.43750000  0.81250000
   0.93750000  0.31250000  0.93750000
   0.81250000  0.43750000  0.93750000
   0.75000000  0.50000000  0.00000000
   0.81250000  0.56250000  0.06250000
   0.87500000  0.62500000  0.00000000
   0.87500000  0.50000000  0.12500000
   0.75000000  0.62500000  0.12500000
   0.93750000  0.68750000  0.06250000
   0.93750000  0.56250000  0.18750000
   0.81250000  0.68750000  0.18750000
   0.75000000  0.50000000  0.25000000
   0.81250000  0.56250000  0.31250000
   0.87500000  0.62500000  0.25000000
   0.87500000  0.50000000  0.37500000
   0.75000000  0.62500000  0.37500000
   0.93750000  0.68750000  0.31250000
   0.93750000  0.56250000  0.43750000
   0.81250000  0.68750000  0.43750000
   0.75000000  0.50000000  0.50000000
   0.81250000  0.56250000  0.56250000
   0.87500000  0.62500000  0.50000000
   0.87500000  0.50000000  0.62500000
   0.75000000  0.62500000  0.62500000
   0.93750000  0.68750000  0.56250000
   0.93750000  0.56250000  0.68750000
   0.81250000  0.68750000  0.68750000
   0.75000000  0.50000000  0.75000000
   0.81250000  0.56250000  0.81250000
   0.87500000  0.62500000  0.75000000
   0.87500000  0.50000000  0.87500000
   0.75000000  0.62500000  0.87500000
   0.93750000  0.68750000  0.81250000
   0.93750000  0.56250000  0.93750000
   0.81250000  0.68750000  0.93750000
   0.75000000  0.75000000  0.00000000
   0.81250000  0.81250000  0.06250000
   0.87500000  0.87500000  0.00000000
   0.87500000  0.75000000  0.12500000
   0.75000000  0.87500000  0.12500000
   0.93750000  0.93750000  0.06250000
   0.93750000  0.81250000  0.18750000
   0.81250000  0.93750000  0.18750000
   0.75000000  0.75000000  0.25000000
   0.81250000  0.81250000  0.31250000
   0.87500000  0.87500000  0.25000000
   0.87500000  0.75000000  0.37500000
   0.75000000  0.87500000  0.37500000
   0.93750000  0.93750000  0.31250000
   0.93750000  0.81250000  0.43750000
   0.81250000  0.93750000  0.43750000
   0.75000000  0.75000000  0.50000000
   0.81250000  0.81250000  0.56250000
   0.87500000  0.87500000  0.50000000
   0.87500000  0.75000000  0.62500000
   0.75000000  0.87500000  0.62500000
   0.93750000  0.93750000  0.56250000
   0.93750000  0.81250000  0.68750000
   0.81250000  0.93750000  0.68750000
   0.75000000  0.75000000  0.75000000
   0.81250000  0.81250000  0.81250000
   0.87500000  0.87500000  0.75000000
   0.87500000  0.75000000  0.87500000
   0.75000000  0.87500000  0.87500000
   0.93750000  0.93750000  0.81250000
   0.93750000  0.81250000  0.93750000
   0.81250000  0.93750000  0.93750000
   0.50000000  0.50000000  0.50000000
 
 position of ions in cartesian coordinates  (Angst):
   0.00000000  0.00000000  0.00000000
   0.89175000  0.89175000  0.89175000
   1.78350000  1.78350000  0.00000000
   1.78350000  0.00000000  1.78350000
   0.00000000  1.78350000  1.78350000
   2.67525000  2.67525000  0.89175000
   2.67525000  0.89175000  2.67525000
   0.89175000  2.67525000  2.67525000
   0.00000000  0.00000000  3.56700000
   0.89175000  0.89175000  4.45875000
   1.78350000  1.78350000  3.56700000
   1.78350000  0.00000000  5.35050000
   0.00000000  1.78350000  5.35050000
   2.67525000  2.67525000  4.45875000
   2.67525000  0.89175000  6.24225000
   0.89175000  2.67525000  6.24225000
   0.00000000  0.00000000  7.13400000
   0.89175000  0.89175000  8.02575000
   1.78350000  1.78350000  7.13400000
   1.78350000  0.00000000  8.91750000
   0.00000000  1.78350000  8.91750000
   2.67525000  2.67525000  8.02575000
   2.67525000  0.89175000  9.80925000
   0.89175000  2.67525000  9.80925000
   0.00000000  0.00000000 10.70100000
   0.89175000  0.89175000 11.59275000
   1.78350000  1.78350000 10.70100000
   1.78350000  0.00000000 12.48450000
   0.00000000  1.78350000 12.48450000
   2.67525000  2.67525000 11.59275000
   2.67525000  0.89175000 13.37625000
   0.89175000  2.67525000 13.37625000
   0.00000000  3.56700000  0.00000000
   0.89175000  4.45875000  0.89175000
   1.78350000  5.35050000  0.00000000
   1.78350000  3.56700000  1.78350000
   0.00000000  5.35050000  1.78350000
   2.67525000  6.24225000  0.89175000
   2.67525000  4.45875000  2.67525000
   0.89175000  6.24225000  2.67525000
   0.00000000  3.56700000  3.56700000
   0.89175000  4.45875000  4.45875000
   1.78350000  5.35050000  3.56700000
   1.78350000  3.56700000  5.35050000
   0.00000000  5.35050000  5.35050000
   2.67525000  6.24225000  4.45875000
   2.67525000  4.45875000  6.24225000
   0.89175000  6.24225000  6.24225000
   0.00000000  3.56700000  7.13400000
   0.89175000  4.45875000  8.02575000
   1.78350000  5.35050000  7.13400000
   1.78350000  3.56700000  8.91750000
   0.00000000  5.35050000  8.91750000
   2.67525000  6.24225000  8.02575000
   2.67525000  4.45875000  9.80925000
   0.89175000  6.24225000  9.80925000
   0.00000000  3.56700000 10.70100000
   0.89175000  4.45875000 11.59275000
   1.78350000  5.35050000 10.70100000
   1.78350000  3.56700000 12.48450000
   0.00000000  5.35050000 12.48450000
   2.67525000  6.24225000 11.59275000
[...]
      7.13555      3.57260     10.69606        -0.004525      0.002432      0.000087
      8.02745      4.45846     11.59357         0.003748      0.003129     -0.000961
      8.91533      5.34796     10.70431        -0.003571      0.000780      0.000674
      8.91717      3.56582     12.48561        -0.005361      0.003722     -0.002528
      7.13494      5.35211     12.48221        -0.001074      0.000311     -0.002141
      9.81041      6.24367     11.59310        -0.000269      0.003395     -0.001770
      9.80935      4.45870     13.37680         0.001751      0.002415     -0.004037
      8.02632      6.24325     13.37508         0.003953      0.007034     -0.004970
      7.13429      7.13429     -0.00057        -0.002864     -0.002864     -0.004022
      8.02567      8.02567      0.89203         0.001414      0.001414     -0.001716
      8.91763      8.91763      0.00020        -0.000959     -0.000959      0.002534
      8.91703      7.13404      1.78438         0.000265     -0.000063      0.004688
      7.13404      8.91703      1.78438        -0.000063      0.000265      0.004688
      9.80871      9.80871      0.89270         0.006058      0.006058     -0.004235
      9.80754      8.02592      2.67791        -0.005004     -0.003825      0.003017
      8.02592      9.80754      2.67791        -0.003825     -0.005004      0.003017
      7.13248      7.13248      3.56699        -0.000137     -0.000137     -0.003584
      8.02421      8.02421      4.46492         0.003055      0.003055     -0.001504
      8.91676      8.91676      3.57037        -0.004669     -0.004669      0.000800
      8.89997      7.14215      5.36892        -0.000046      0.000617     -0.002094
      7.14215      8.89997      5.36892         0.000617     -0.000046     -0.002094
      9.80902      9.80902      4.46083         0.000402      0.000402      0.002760
      9.79435      8.03655      6.26304        -0.003639      0.000835      0.007754
      8.03655      9.79435      6.26304         0.000835     -0.003639      0.007754
      8.97948      8.97948      7.09933        -0.001656     -0.001656     -0.007763
      8.97948      7.09933      8.97948        -0.001656     -0.007763     -0.001656
      7.09933      8.97948      8.97948        -0.007763     -0.001656     -0.001656
      9.80728      9.80728      8.02158         0.000728      0.000728      0.000565
      9.80728      8.02158      9.80728         0.000728      0.000565      0.000728
      8.02158      9.80728      9.80728         0.000565      0.000728      0.000728
      7.13968      7.13968     10.69227        -0.002450     -0.002450      0.006195
      8.02791      8.02791     11.58839        -0.000674     -0.000674     -0.004634
      8.91842      8.91842     10.69823        -0.000971     -0.000971      0.000463
      8.91780      7.13531     12.48330        -0.001119      0.000040      0.002502
      7.13531      8.91780     12.48330         0.000040     -0.001119      0.002502
      9.80816      9.80816     11.59148        -0.000456     -0.000456     -0.001054
      9.80932      8.02583     13.37621         0.000215      0.005597     -0.004490
      8.02583      9.80932     13.37621         0.005597      0.000215     -0.004490
      7.13429     10.70078      0.00059        -0.002969      0.000690     -0.002276
      8.02567     11.59196      0.89280         0.001422      0.009316     -0.000878
      8.91756     12.48472      0.00113         0.000106      0.004127     -0.004521
      8.91722     10.70024      1.78474         0.002597      0.001562      0.009331
      7.13424     12.48298      1.78510         0.001126      0.000554      0.005222
      9.80921     13.37651      0.89201         0.001223     -0.003989      0.002675
      9.80924     11.59284      2.67521         0.002648      0.002348      0.007743
      8.02587     13.37662      2.67493         0.010914     -0.001843      0.002793
      7.13555     10.69606      3.57260        -0.004525      0.000087      0.002432
      8.02745     11.59357      4.45846         0.003748     -0.000961      0.003129
      8.91717     12.48561      3.56582        -0.005361     -0.002528      0.003722
      8.91533     10.70431      5.34796        -0.003571      0.000674      0.000780
      7.13494     12.48221      5.35211        -0.001074     -0.002141      0.000311
      9.80935     13.37680      4.45870         0.001751     -0.004037      0.002415
      9.81041     11.59310      6.24367        -0.000269     -0.001770      0.003395
      8.02632     13.37508      6.24325         0.003953     -0.004970      0.007034
      7.13968     10.69227      7.13968        -0.002450      0.006195     -0.002450
      8.02791     11.58839      8.02791        -0.000674     -0.004634     -0.000674
      8.91780     12.48330      7.13531        -0.001119      0.002502      0.000040
      8.91842     10.69823      8.91842        -0.000971      0.000463     -0.000971
      7.13531     12.48330      8.91780         0.000040      0.002502     -0.001119
      9.80932     13.37621      8.02583         0.000215     -0.004490      0.005597
      9.80816     11.59148      9.80816        -0.000456     -0.001054     -0.000456
      8.02583     13.37621      9.80932         0.005597     -0.004490      0.000215
      7.13910     10.71086     10.71086         0.003427     -0.003199     -0.003199
      8.02511     11.59866     11.59866         0.001434     -0.002155     -0.002155
      8.91806     12.48535     10.70199         0.004803      0.005937      0.005649
      8.91806     10.70199     12.48535         0.004803      0.005649      0.005937
      7.13477     12.48815     12.48815         0.002451      0.001670      0.001670
      9.80909     13.37706     11.59273         0.001420     -0.001009     -0.002164
      9.80909     11.59273     13.37706         0.001420     -0.002164     -0.001009
      8.02540     13.37844     13.37844        -0.003950     -0.002782     -0.002782
     10.70092     -0.00024     -0.00024        -0.002584      0.011421      0.011421
     11.59262      0.89182      0.89182        -0.000419      0.003752      0.003752
     12.48426      1.78367     -0.00009         0.000077     -0.000078      0.004801
     12.48426     -0.00009      1.78367         0.000077      0.004801     -0.000078
     10.70078      1.78427      1.78427        -0.002332     -0.008169     -0.008169
     13.37610      2.67535      0.89188        -0.004790      0.003681      0.004333
     13.37610      0.89188      2.67535        -0.004790      0.004333      0.003681
     11.59207      2.67638      2.67638        -0.001034     -0.006093     -0.006093
     10.70074      0.00063      3.56722         0.002778     -0.005206      0.001952
     11.59237      0.89267      4.45912         0.001289      0.001817     -0.002285
     12.48380      1.78442      3.56745        -0.000131     -0.005140      0.000346
     12.48433      0.00097      5.35060        -0.000060     -0.005622     -0.001060
     10.70004      1.78476      5.35096        -0.001445      0.003324      0.002285
     13.37461      2.67644      4.45941         0.001558     -0.005915     -0.001925
     13.37566      0.89270      6.24223        -0.003624      0.002112     -0.000761
     11.58941      2.67856      6.24284        -0.002995      0.000848     -0.001623
     10.70078      0.00059      7.13429         0.000690     -0.002276     -0.002969
     11.59196      0.89280      8.02567         0.009316     -0.000878      0.001422
     12.48298      1.78510      7.13424         0.000554      0.005222      0.001126
     12.48472      0.00113      8.91756         0.004127     -0.004521      0.000106
     10.70024      1.78474      8.91722         0.001562      0.009331      0.002597
     13.37662      2.67493      8.02587        -0.001843      0.002793      0.010914
     13.37651      0.89201      9.80921        -0.003989      0.002675      0.001223
     11.59284      2.67521      9.80924         0.002348      0.007743      0.002648
     10.70108      0.00089     10.70108         0.000472     -0.000276      0.000472
     11.59276      0.89187     11.59276         0.002132      0.002485      0.002132
     12.48452      1.78351     10.70091        -0.000644      0.008369      0.001657
     12.48418     -0.00037     12.48418         0.005169      0.008224      0.005169
     10.70091      1.78351     12.48452         0.001657      0.008369     -0.000644
     13.37627      2.67553     11.59260         0.004167     -0.001625      0.003113
     13.37615      0.89161     13.37615        -0.001123      0.001654     -0.001123
     11.59260      2.67553     13.37627         0.003113     -0.001625      0.004167
     10.70074      3.56722      0.00063         0.002778      0.001952     -0.005206
     11.59237      4.45912      0.89267         0.001289     -0.002285      0.001817
     12.48433      5.35060      0.00097        -0.000060     -0.001060     -0.005622
     12.48380      3.56745      1.78442        -0.000131      0.000346     -0.005140
     10.70004      5.35096      1.78476        -0.001445      0.002285      0.003324
     13.37566      6.24223      0.89270        -0.003624     -0.000761      0.002112
     13.37461      4.45941      2.67644         0.001558     -0.001925     -0.005915
     11.58941      6.24284      2.67856        -0.002995     -0.001623      0.000848
     10.69977      3.56869      3.56869        -0.001103     -0.001605     -0.001605
     11.58899      4.46184      4.46184        -0.001082     -0.005522     -0.005522
     12.48204      5.35157      3.56915        -0.001216      0.002254      0.001486
     12.48204      3.56915      5.35157        -0.001216      0.001486      0.002254
     10.69503      5.35523      5.35523         0.001364      0.001193      0.001193
     13.37461      6.24313      4.46038        -0.002978      0.000589      0.000237
     13.37461      4.46038      6.24313        -0.002978      0.000237      0.000589
     11.58658      6.24747      6.24747        -0.000334     -0.001757     -0.001757
     10.69606      3.57260      7.13555         0.000087      0.002432     -0.004525
     11.59357      4.45846      8.02745        -0.000961      0.003129      0.003748
     12.48221      5.35211      7.13494        -0.002141      0.000311     -0.001074
     12.48561      3.56582      8.91717        -0.002528      0.003722     -0.005361
     10.70431      5.34796      8.91533         0.000674      0.000780     -0.003571
     13.37508      6.24325      8.02632        -0.004970      0.007034      0.003953
     13.37680      4.45870      9.80935        -0.004037      0.002415      0.001751
     11.59310      6.24367      9.81041        -0.001770      0.003395     -0.000269
     10.70070      3.56730     10.70070        -0.003866      0.002060     -0.003866
     11.59273      4.45912     11.59273        -0.004312      0.009817     -0.004312
     12.48513      5.35081     10.70098         0.001205      0.005510     -0.001895
     12.48426      3.56734     12.48426         0.002926      0.002218      0.002926
     10.70098      5.35081     12.48513        -0.001895      0.005510      0.001205
     13.37760      6.24222     11.59358        -0.005471      0.004133     -0.002112
     13.37629      4.45906     13.37629         0.002765     -0.003840      0.002765
     11.59358      6.24222     13.37760        -0.002112      0.004133     -0.005471
     10.70078      7.13429      0.00059         0.000690     -0.002969     -0.002276
     11.59196      8.02567      0.89280         0.009316      0.001422     -0.000878
     12.48472      8.91756      0.00113         0.004127      0.000106     -0.004521
     12.48298      7.13424      1.78510         0.000554      0.001126      0.005222
     10.70024      8.91722      1.78474         0.001562      0.002597      0.009331
     13.37651      9.80921      0.89201        -0.003989      0.001223      0.002675
     13.37662      8.02587      2.67493        -0.001843      0.010914      0.002793
     11.59284      9.80924      2.67521         0.002348      0.002648      0.007743
     10.69606      7.13555      3.57260         0.000087     -0.004525      0.002432
     11.59357      8.02745      4.45846        -0.000961      0.003748      0.003129
     12.48561      8.91717      3.56582        -0.002528     -0.005361      0.003722
     12.48221      7.13494      5.35211        -0.002141     -0.001074      0.000311
     10.70431      8.91533      5.34796         0.000674     -0.003571      0.000780
     13.37680      9.80935      4.45870        -0.004037      0.001751      0.002415
     13.37508      8.02632      6.24325        -0.004970      0.003953      0.007034
     11.59310      9.81041      6.24367        -0.001770     -0.000269      0.003395
     10.69227      7.13968      7.13968         0.006195     -0.002450     -0.002450
     11.58839      8.02791      8.02791        -0.004634     -0.000674     -0.000674
     12.48330      8.91780      7.13531         0.002502     -0.001119      0.000040
     12.48330      7.13531      8.91780         0.002502      0.000040     -0.001119
     10.69823      8.91842      8.91842         0.000463     -0.000971     -0.000971
     13.37621      9.80932      8.02583        -0.004490      0.000215      0.005597
     13.37621      8.02583      9.80932        -0.004490      0.005597      0.000215
     11.59148      9.80816      9.80816        -0.001054     -0.000456     -0.000456
     10.71086      7.13910     10.71086        -0.003199      0.003427     -0.003199
     11.59866      8.02511     11.59866        -0.002155      0.001434     -0.002155
     12.48535      8.91806     10.70199         0.005937      0.004803      0.005649
     12.48815      7.13477     12.48815         0.001670      0.002451      0.001670
     10.70199      8.91806     12.48535         0.005649      0.004803      0.005937
     13.37706      9.80909     11.59273        -0.001009      0.001420     -0.002164
     13.37844      8.02540     13.37844        -0.002782     -0.003950     -0.002782
     11.59273      9.80909     13.37706        -0.002164      0.001420     -0.001009
     10.70108     10.70108      0.00089         0.000472      0.000472     -0.000276
     11.59276     11.59276      0.89187         0.002132      0.002132      0.002485
     12.48418     12.48418     -0.00037         0.005169      0.005169      0.008224
     12.48452     10.70091      1.78351        -0.000644      0.001657      0.008369
     10.70091     12.48452      1.78351         0.001657     -0.000644      0.008369
     13.37615     13.37615      0.89161        -0.001123     -0.001123      0.001654
     13.37627     11.59260      2.67553         0.004167      0.003113     -0.001625
     11.59260     13.37627      2.67553         0.003113      0.004167     -0.001625
     10.70070     10.70070      3.56730        -0.003866     -0.003866      0.002060
     11.59273     11.59273      4.45912        -0.004312     -0.004312      0.009817
     12.48426     12.48426      3.56734         0.002926      0.002926      0.002218
     12.48513     10.70098      5.35081         0.001205     -0.001895      0.005510
     10.70098     12.48513      5.35081        -0.001895      0.001205      0.005510
     13.37629     13.37629      4.45906         0.002765      0.002765     -0.003840
     13.37760     11.59358      6.24222        -0.005471     -0.002112      0.004133
     11.59358     13.37760      6.24222        -0.002112     -0.005471      0.004133
     10.71086     10.71086      7.13910        -0.003199     -0.003199      0.003427
     11.59866     11.59866      8.02511        -0.002155     -0.002155      0.001434
     12.48815     12.48815      7.13477         0.001670      0.001670      0.002451
     12.48535     10.70199      8.91806         0.005937      0.005649      0.004803
     10.70199     12.48535      8.91806         0.005649      0.005937      0.004803
     13.37844     13.37844      8.02540        -0.002782     -0.002782     -0.003950
     13.37706     11.59273      9.80909        -0.001009     -0.002164      0.001420
     11.59273     13.37706      9.80909        -0.002164     -0.001009      0.001420
     10.70052     10.70052     10.70052         0.006965      0.006965      0.006965
     11.59221     11.59221     11.59221        -0.001964     -0.001964     -0.001964
     12.48432     12.48432     10.70084         0.003688      0.003688      0.001391
     12.48432     10.70084     12.48432         0.003688      0.001391      0.003688
     10.70084     12.48432     12.48432         0.001391      0.003688      0.003688
     13.37586     13.37586     11.59245         0.006709      0.006709      0.003290
     13.37586     11.59245     13.37586         0.006709      0.003290      0.006709
     11.59245     13.37586     13.37586         0.003290      0.006709      0.006709
      7.05097      7.05097      7.05097         0.002955      0.002955      0.002955
 -----------------------------------------------------------------------------------
    total drift:                                0.001594      0.001570      0.001547


--------------------------------------------------------------------------------------------------------



  FREE ENERGIE OF THE ION-ELECTRON SYSTEM (eV)
  ---------------------------------------------------
  free  energy   TOTEN  =     -4604.63381877 eV

  energy  without entropy=    -4604.63381877  energy(sigma->0) =    -4604.63381877
 
 d Force = 0.5301569E-06[-0.854E-05, 0.960E-05]  d Energy =-0.3126159E-05 0.366E-05
 d Force = 0.1646292E-01[ 0.164E-01, 0.165E-01]  d Ewald  = 0.1646028E-01 0.264E-05


--------------------------------------------------------------------------------------------------------


    POTLOK:  cpu time    0.3560: real time    0.3579

 Spin-spin contribution to zero-field splitting tensor (MHz)
 ---------------------------------------------------------------
      D_xx      D_yy      D_zz      D_xy      D_xz      D_yz
 ---------------------------------------------------------------
      0.005     0.005     0.005  1048.203  1048.203  1048.203
 ---------------------------------------------------------------

 after diagonalization
 ---------------------------------------------
     D_diag          eigenvector (x,y,z)
 ---------------------------------------------
  -1048.198      -0.636     0.762    -0.126
  -1048.198      -0.512    -0.294     0.807
   2096.411      -0.577    -0.577    -0.577
---------------------------------------------



--------------------------------------------------------------------------------------------------------




--------------------------------------------------------------------------------------------------------


  
 reached required accuracy - stopping structural energy minimisation
 writing wavefunctions
     LOOP+:  cpu time 3410.7412: real time 3426.9509
    4ORBIT:  cpu time    0.0000: real time    0.0000

 total amount of memory used by VASP on root node   370285. kBytes
========================================================================

   base      :      30000. kBytes
   nonl-proj :     224593. kBytes
   fftplans  :       4662. kBytes
   grid      :      35526. kBytes
   one-center:      11871. kBytes
   HF        :        193. kBytes
   nonlr-proj:      30493. kBytes
   wavefun   :      32947. kBytes
 
  
  
 General timing and accounting informations for this job:
 ========================================================
  
                  Total CPU time used (sec):    66910.438
                            User time (sec):    66881.800
                          System time (sec):       28.638
                         Elapsed time (sec):    67220.158
  
                   Maximum memory used (kb):      506300.
                   Average memory used (kb):           0.
  
                          Minor page faults:        97939
                          Major page faults:            4
                 Voluntary context switches:        17992
